#Header 
 
108 atoms 
 
2 atom types 
 
0.00000000 210.45871775 xlo xhi 
0.00000000 21.71999997 ylo yhi 
0.00000000 24.28369820 zlo zhi 

0.00000000 0.00000000 0.00000000 xy xz yz 

Atoms 
 
1 1 104.24600000 1.81000000 6.45277000
2 1 104.24600000 5.43000000 6.45277000
3 1 104.24600000 9.05000000 6.45277000
4 1 104.24600000 12.67000000 6.45277000
5 1 104.24600000 16.29000000 6.45277000
6 1 104.24600000 19.91000000 6.45277000
7 1 104.24600000 1.81000000 14.54730000
8 1 104.24600000 5.43000000 14.54730000
9 1 104.24600000 9.05000000 14.54730000
10 1 104.24600000 12.67000000 14.54730000
11 1 104.24600000 16.29000000 14.54730000
12 1 104.24600000 19.91000000 14.54730000
13 1 104.24600000 1.81000000 22.64190000
14 1 104.24600000 5.43000000 22.64190000
15 1 104.24600000 9.05000000 22.64190000
16 1 104.24600000 12.67000000 22.64190000
17 1 104.24600000 16.29000000 22.64190000
18 1 104.24600000 19.91000000 22.64190000
19 1 103.70200000 -0.00000026 4.84361000
20 1 103.70200000 3.62000000 4.84361000
21 1 103.70200000 7.24000000 4.84361000
22 1 103.70200000 10.86000000 4.84361000
23 1 103.70200000 14.48000000 4.84361000
24 1 103.70200000 18.10000000 4.84361000
25 1 103.70200000 -0.00000020 12.93820000
26 1 103.70200000 3.62000000 12.93820000
27 1 103.70200000 7.24000000 12.93820000
28 1 103.70200000 10.86000000 12.93820000
29 1 103.70200000 14.48000000 12.93820000
30 1 103.70200000 18.10000000 12.93820000
31 1 103.70200000 -0.00000019 21.03270000
32 1 103.70200000 3.62000000 21.03270000
33 1 103.70200000 7.24000000 21.03270000
34 1 103.70200000 10.86000000 21.03270000
35 1 103.70200000 14.48000000 21.03270000
36 1 103.70200000 18.10000000 21.03270000
37 1 104.24600000 0.00000006 2.40549000
38 1 104.24600000 3.62000000 2.40549000
39 1 104.24600000 7.24000000 2.40549000
40 1 104.24600000 10.86000000 2.40549000
41 1 104.24600000 14.48000000 2.40549000
42 1 104.24600000 18.10000000 2.40549000
43 1 104.24600000 0.00000006 10.50010000
44 1 104.24600000 3.62000000 10.50010000
45 1 104.24600000 7.24000000 10.50010000
46 1 104.24600000 10.86000000 10.50010000
47 1 104.24600000 14.48000000 10.50010000
48 1 104.24600000 18.10000000 10.50010000
49 1 104.24600000 0.00000005 18.59460000
50 1 104.24600000 3.62000000 18.59460000
51 1 104.24600000 7.24000000 18.59460000
52 1 104.24600000 10.86000000 18.59460000
53 1 104.24600000 14.48000000 18.59460000
54 1 104.24600000 18.10000000 18.59460000
55 1 103.70200000 1.81000000 0.79633100
56 1 103.70200000 5.43000000 0.79633100
57 1 103.70200000 9.05000000 0.79633100
58 1 103.70200000 12.67000000 0.79633100
59 1 103.70200000 16.29000000 0.79633100
60 1 103.70200000 19.91000000 0.79633100
61 1 103.70200000 1.81000000 8.89090000
62 1 103.70200000 5.43000000 8.89090000
63 1 103.70200000 9.05000000 8.89090000
64 1 103.70200000 12.67000000 8.89090000
65 1 103.70200000 16.29000000 8.89090000
66 1 103.70200000 19.91000000 8.89090000
67 1 103.70200000 1.81000000 16.98550000
68 1 103.70200000 5.43000000 16.98550000
69 1 103.70200000 9.05000000 16.98550000
70 1 103.70200000 12.67000000 16.98550000
71 1 103.70200000 16.29000000 16.98550000
72 1 103.70200000 19.91000000 16.98550000
73 1 105.39800000 1.81000000 4.05042000
74 1 105.39800000 5.43000000 4.05042000
75 1 105.39800000 9.05000000 4.05042000
76 1 105.39800000 12.67000000 4.05042000
77 1 105.39800000 16.29000000 4.05042000
78 1 105.39800000 19.91000000 4.05042000
79 1 105.39800000 1.81000000 12.14500000
80 1 105.39800000 5.43000000 12.14500000
81 1 105.39800000 9.05000000 12.14500000
82 1 105.39800000 12.67000000 12.14500000
83 1 105.39800000 16.29000000 12.14500000
84 1 105.39800000 19.91000000 12.14500000
85 1 105.39800000 1.81000000 20.23960000
86 1 105.39800000 5.43000000 20.23960000
87 1 105.39800000 9.05000000 20.23960000
88 1 105.39800000 12.67000000 20.23960000
89 1 105.39800000 16.29000000 20.23960000
90 1 105.39800000 19.91000000 20.23960000
91 1 105.39800000 -0.00000003 0.00314070
92 1 105.39800000 3.62000000 0.00314109
93 1 105.39800000 7.24000000 0.00314089
94 1 105.39800000 10.86000000 0.00314068
95 1 105.39800000 14.48000000 0.00314111
96 1 105.39800000 18.10000000 0.00314088
97 1 105.39800000 -0.00000004 8.09771000
98 1 105.39800000 3.62000000 8.09771000
99 1 105.39800000 7.24000000 8.09771000
100 1 105.39800000 10.86000000 8.09771000
101 1 105.39800000 14.48000000 8.09771000
102 1 105.39800000 18.10000000 8.09771000
103 1 105.39800000 -0.00000003 16.19230000
104 1 105.39800000 3.62000000 16.19230000
105 1 105.39800000 7.24000000 16.19230000
106 1 105.39800000 10.86000000 16.19230000
107 1 105.39800000 14.48000000 16.19230000
108 1 105.39800000 18.10000000 16.19230000
