#Header 
 
180 atoms 
 
2 atom types 
 
0.00000000 210.45871775 xlo xhi 
0.00000000 21.71999997 ylo yhi 
0.00000000 24.28369820 zlo zhi 

0.00000000 0.00000000 0.00000000 xy xz yz 

Atoms 
 
1 1 104.41990227 1.81000000 6.47565285
2 1 104.41990227 5.42999999 6.47565285
3 1 104.41990227 9.04999999 6.47565285
4 1 104.41990227 12.66999998 6.47565285
5 1 104.41990227 16.28999998 6.47565285
6 1 104.41990227 19.90999997 6.47565285
7 1 104.41990227 1.81000000 14.57021892
8 1 104.41990227 5.42999999 14.57021892
9 1 104.41990227 9.04999999 14.57021892
10 1 104.41990227 12.66999998 14.57021892
11 1 104.41990227 16.28999998 14.57021892
12 1 104.41990227 19.90999997 14.57021892
13 1 104.41990227 1.81000000 22.66478499
14 1 104.41990227 5.42999999 22.66478499
15 1 104.41990227 9.04999999 22.66478499
16 1 104.41990227 12.66999998 22.66478499
17 1 104.41990227 16.28999998 22.66478499
18 1 104.41990227 19.90999997 22.66478499
19 1 103.61044566 0.00000000 4.85673964
20 1 103.61044566 3.62000000 4.85673964
21 1 103.61044566 7.23999999 4.85673964
22 1 103.61044566 10.85999999 4.85673964
23 1 103.61044566 14.47999998 4.85673964
24 1 103.61044566 18.09999998 4.85673964
25 1 103.61044566 0.00000000 12.95130571
26 1 103.61044566 3.62000000 12.95130571
27 1 103.61044566 7.23999999 12.95130571
28 1 103.61044566 10.85999999 12.95130571
29 1 103.61044566 14.47999998 12.95130571
30 1 103.61044566 18.09999998 12.95130571
31 1 103.61044566 0.00000000 21.04587178
32 1 103.61044566 3.62000000 21.04587178
33 1 103.61044566 7.23999999 21.04587178
34 1 103.61044566 10.85999999 21.04587178
35 1 103.61044566 14.47999998 21.04587178
36 1 103.61044566 18.09999998 21.04587178
37 1 104.41990227 0.00000000 2.42836982
38 1 104.41990227 3.62000000 2.42836982
39 1 104.41990227 7.23999999 2.42836982
40 1 104.41990227 10.85999999 2.42836982
41 1 104.41990227 14.47999998 2.42836982
42 1 104.41990227 18.09999998 2.42836982
43 1 104.41990227 0.00000000 10.52293589
44 1 104.41990227 3.62000000 10.52293589
45 1 104.41990227 7.23999999 10.52293589
46 1 104.41990227 10.85999999 10.52293589
47 1 104.41990227 14.47999998 10.52293589
48 1 104.41990227 18.09999998 10.52293589
49 1 104.41990227 0.00000000 18.61750195
50 1 104.41990227 3.62000000 18.61750195
51 1 104.41990227 7.23999999 18.61750195
52 1 104.41990227 10.85999999 18.61750195
53 1 104.41990227 14.47999998 18.61750195
54 1 104.41990227 18.09999998 18.61750195
55 1 103.61044566 1.81000000 0.80945661
56 1 103.61044566 5.42999999 0.80945661
57 1 103.61044566 9.04999999 0.80945661
58 1 103.61044566 12.66999998 0.80945661
59 1 103.61044566 16.28999998 0.80945661
60 1 103.61044566 19.90999997 0.80945661
61 1 103.61044566 1.81000000 8.90402267
62 1 103.61044566 5.42999999 8.90402267
63 1 103.61044566 9.04999999 8.90402267
64 1 103.61044566 12.66999998 8.90402267
65 1 103.61044566 16.28999998 8.90402267
66 1 103.61044566 19.90999997 8.90402267
67 1 103.61044566 1.81000000 16.99858874
68 1 103.61044566 5.42999999 16.99858874
69 1 103.61044566 9.04999999 16.99858874
70 1 103.61044566 12.66999998 16.99858874
71 1 103.61044566 16.28999998 16.99858874
72 1 103.61044566 19.90999997 16.99858874
73 1 105.22935888 1.81000000 4.04728303
74 1 105.22935888 5.42999999 4.04728303
75 1 105.22935888 9.04999999 4.04728303
76 1 105.22935888 12.66999998 4.04728303
77 1 105.22935888 16.28999998 4.04728303
78 1 105.22935888 19.90999997 4.04728303
79 1 105.22935888 1.81000000 12.14184910
80 1 105.22935888 5.42999999 12.14184910
81 1 105.22935888 9.04999999 12.14184910
82 1 105.22935888 12.66999998 12.14184910
83 1 105.22935888 16.28999998 12.14184910
84 1 105.22935888 19.90999997 12.14184910
85 1 105.22935888 1.81000000 20.23641517
86 1 105.22935888 5.42999999 20.23641517
87 1 105.22935888 9.04999999 20.23641517
88 1 105.22935888 12.66999998 20.23641517
89 1 105.22935888 16.28999998 20.23641517
90 1 105.22935888 19.90999997 20.23641517
91 1 105.22935888 0.00000000 -0.00000000
92 1 105.22935888 3.62000000 -0.00000000
93 1 105.22935888 7.23999999 -0.00000000
94 1 105.22935888 10.85999999 -0.00000000
95 1 105.22935888 14.47999998 -0.00000000
96 1 105.22935888 18.09999998 -0.00000000
97 1 105.22935888 0.00000000 8.09456607
98 1 105.22935888 3.62000000 8.09456607
99 1 105.22935888 7.23999999 8.09456607
100 1 105.22935888 10.85999999 8.09456607
101 1 105.22935888 14.47999998 8.09456607
102 1 105.22935888 18.09999998 8.09456607
103 1 105.22935888 0.00000000 16.18913213
104 1 105.22935888 3.62000000 16.18913213
105 1 105.22935888 7.23999999 16.18913213
106 1 105.22935888 10.85999999 16.18913213
107 1 105.22935888 14.47999998 16.18913213
108 1 105.22935888 18.09999998 16.18913213
109 1 106.03881548 6.81000000 11.47565285
110 1 106.03881548 10.42999999 11.47565285
111 1 106.03881548 14.04999999 11.47565285
112 1 106.03881548 17.66999998 11.47565285
113 1 106.03881548 21.28999998 11.47565285
114 1 106.03881548 24.90999997 11.47565285
115 1 106.03881548 6.81000000 19.57021892
116 1 106.03881548 10.42999999 19.57021892
117 1 106.03881548 14.04999999 19.57021892
118 1 106.03881548 17.66999998 19.57021892
119 1 106.03881548 21.28999998 19.57021892
120 1 106.03881548 24.90999997 19.57021892
121 1 106.03881548 6.81000000 27.66478499
122 1 106.03881548 10.42999999 27.66478499
123 1 106.03881548 14.04999999 27.66478499
124 1 106.03881548 17.66999998 27.66478499
125 1 106.03881548 21.28999998 27.66478499
126 1 106.03881548 24.90999997 27.66478499
127 1 106.84827209 5.00000000 9.85673964
128 1 106.84827209 8.62000000 9.85673964
129 1 106.84827209 12.23999999 9.85673964
130 1 106.84827209 15.85999999 9.85673964
131 1 106.84827209 19.47999998 9.85673964
132 1 106.84827209 23.09999998 9.85673964
133 1 106.84827209 5.00000000 17.95130571
134 1 106.84827209 8.62000000 17.95130571
135 1 106.84827209 12.23999999 17.95130571
136 1 106.84827209 15.85999999 17.95130571
137 1 106.84827209 19.47999998 17.95130571
138 1 106.84827209 23.09999998 17.95130571
139 1 106.84827209 5.00000000 26.04587178
140 1 106.84827209 8.62000000 26.04587178
141 1 106.84827209 12.23999999 26.04587178
142 1 106.84827209 15.85999999 26.04587178
143 1 106.84827209 19.47999998 26.04587178
144 1 106.84827209 23.09999998 26.04587178
145 1 106.03881548 5.00000000 7.42836982
146 1 106.03881548 8.62000000 7.42836982
147 1 106.03881548 12.23999999 7.42836982
148 1 106.03881548 15.85999999 7.42836982
149 1 106.03881548 19.47999998 7.42836982
150 1 106.03881548 23.09999998 7.42836982
151 1 106.03881548 5.00000000 15.52293589
152 1 106.03881548 8.62000000 15.52293589
153 1 106.03881548 12.23999999 15.52293589
154 1 106.03881548 15.85999999 15.52293589
155 1 106.03881548 19.47999998 15.52293589
156 1 106.03881548 23.09999998 15.52293589
157 1 106.03881548 5.00000000 23.61750195
158 1 106.03881548 8.62000000 23.61750195
159 1 106.03881548 12.23999999 23.61750195
160 1 106.03881548 15.85999999 23.61750195
161 1 106.03881548 19.47999998 23.61750195
162 1 106.03881548 23.09999998 23.61750195
163 1 106.84827209 6.81000000 5.80945661
164 1 106.84827209 10.42999999 5.80945661
165 1 106.84827209 14.04999999 5.80945661
166 1 106.84827209 17.66999998 5.80945661
167 1 106.84827209 21.28999998 5.80945661
168 1 106.84827209 24.90999997 5.80945661
169 1 106.84827209 6.81000000 13.90402267
170 1 106.84827209 10.42999999 13.90402267
171 1 106.84827209 14.04999999 13.90402267
172 1 106.84827209 17.66999998 13.90402267
173 1 106.84827209 21.28999998 13.90402267
174 1 106.84827209 24.90999997 13.90402267
175 1 106.84827209 6.81000000 21.99858874
176 1 106.84827209 10.42999999 21.99858874
177 1 106.84827209 14.04999999 21.99858874
178 1 106.84827209 17.66999998 21.99858874
179 1 106.84827209 21.28999998 21.99858874
180 1 106.84827209 24.90999997 21.99858874
