#LAMMPS input file of atoms generated by interface_master. The elements are: 1 Cu 
 9360 atoms 
 
1 atom types 
 
0.00000000 210.45871775 xlo xhi 
0.00000000 21.71999997 ylo yhi 
0.00000000 24.28369820 zlo zhi 

-0.00000000 -0.00000000 0.00000000 xy xz yz 

Atoms 
 
1 1 1.6189132134763513 1.8099999975028753 7.2851094606435796
2 1 1.6189132134763511 5.4299999925086251 7.2851094606435796
3 1 1.6189132134763506 9.0499999875143740 7.2851094606435796
4 1 1.6189132134763504 12.6699999825201246 7.2851094606435796
5 1 1.6189132134763500 16.2899999775258735 7.2851094606435796
6 1 1.6189132134763498 19.9099999725316223 7.2851094606435796
7 1 9.7134792808581079 1.8099999975028753 7.2851094606435796
8 1 9.7134792808581079 5.4299999925086251 7.2851094606435796
9 1 9.7134792808581079 9.0499999875143740 7.2851094606435796
10 1 9.7134792808581061 12.6699999825201246 7.2851094606435796
11 1 9.7134792808581061 16.2899999775258735 7.2851094606435796
12 1 9.7134792808581061 19.9099999725316223 7.2851094606435796
13 1 17.8080453482398653 1.8099999975028753 7.2851094606435796
14 1 17.8080453482398653 5.4299999925086251 7.2851094606435796
15 1 17.8080453482398653 9.0499999875143740 7.2851094606435796
16 1 17.8080453482398653 12.6699999825201246 7.2851094606435796
17 1 17.8080453482398653 16.2899999775258735 7.2851094606435796
18 1 17.8080453482398617 19.9099999725316223 7.2851094606435796
19 1 25.9026114156216245 1.8099999975028753 7.2851094606435796
20 1 25.9026114156216245 5.4299999925086251 7.2851094606435796
21 1 25.9026114156216245 9.0499999875143740 7.2851094606435796
22 1 25.9026114156216245 12.6699999825201246 7.2851094606435796
23 1 25.9026114156216245 16.2899999775258735 7.2851094606435796
24 1 25.9026114156216209 19.9099999725316223 7.2851094606435796
25 1 33.9971774830033837 1.8099999975028753 7.2851094606435796
26 1 33.9971774830033837 5.4299999925086251 7.2851094606435796
27 1 33.9971774830033837 9.0499999875143740 7.2851094606435796
28 1 33.9971774830033837 12.6699999825201246 7.2851094606435796
29 1 33.9971774830033837 16.2899999775258735 7.2851094606435796
30 1 33.9971774830033837 19.9099999725316223 7.2851094606435796
31 1 42.0917435503851394 1.8099999975028753 7.2851094606435796
32 1 42.0917435503851394 5.4299999925086251 7.2851094606435796
33 1 42.0917435503851394 9.0499999875143740 7.2851094606435796
34 1 42.0917435503851394 12.6699999825201246 7.2851094606435796
35 1 42.0917435503851394 16.2899999775258735 7.2851094606435796
36 1 42.0917435503851394 19.9099999725316223 7.2851094606435796
37 1 50.1863096177668950 1.8099999975028753 7.2851094606435787
38 1 50.1863096177668950 5.4299999925086251 7.2851094606435787
39 1 50.1863096177668950 9.0499999875143740 7.2851094606435787
40 1 50.1863096177668950 12.6699999825201246 7.2851094606435787
41 1 50.1863096177668950 16.2899999775258735 7.2851094606435787
42 1 50.1863096177668950 19.9099999725316223 7.2851094606435787
43 1 58.2808756851486578 1.8099999975028753 7.2851094606435787
44 1 58.2808756851486578 5.4299999925086251 7.2851094606435787
45 1 58.2808756851486578 9.0499999875143740 7.2851094606435787
46 1 58.2808756851486578 12.6699999825201246 7.2851094606435787
47 1 58.2808756851486578 16.2899999775258735 7.2851094606435787
48 1 58.2808756851486578 19.9099999725316223 7.2851094606435787
49 1 66.3754417525304063 1.8099999975028753 7.2851094606435787
50 1 66.3754417525304063 5.4299999925086251 7.2851094606435787
51 1 66.3754417525304063 9.0499999875143740 7.2851094606435787
52 1 66.3754417525304063 12.6699999825201246 7.2851094606435787
53 1 66.3754417525304063 16.2899999775258735 7.2851094606435787
54 1 66.3754417525304063 19.9099999725316223 7.2851094606435787
55 1 74.4700078199121549 1.8099999975028753 7.2851094606435787
56 1 74.4700078199121549 5.4299999925086251 7.2851094606435787
57 1 74.4700078199121549 9.0499999875143740 7.2851094606435787
58 1 74.4700078199121549 12.6699999825201246 7.2851094606435787
59 1 74.4700078199121549 16.2899999775258735 7.2851094606435787
60 1 74.4700078199121549 19.9099999725316223 7.2851094606435787
61 1 82.5645738872939177 1.8099999975028753 7.2851094606435787
62 1 82.5645738872939177 5.4299999925086251 7.2851094606435787
63 1 82.5645738872939177 9.0499999875143740 7.2851094606435787
64 1 82.5645738872939177 12.6699999825201246 7.2851094606435787
65 1 82.5645738872939177 16.2899999775258735 7.2851094606435787
66 1 82.5645738872939177 19.9099999725316223 7.2851094606435787
67 1 90.6591399546756804 1.8099999975028753 7.2851094606435787
68 1 90.6591399546756804 5.4299999925086251 7.2851094606435787
69 1 90.6591399546756804 9.0499999875143740 7.2851094606435787
70 1 90.6591399546756804 12.6699999825201246 7.2851094606435787
71 1 90.6591399546756804 16.2899999775258735 7.2851094606435787
72 1 90.6591399546756804 19.9099999725316223 7.2851094606435787
73 1 98.7537060220574432 1.8099999975028753 7.2851094606435787
74 1 98.7537060220574432 5.4299999925086251 7.2851094606435787
75 1 98.7537060220574432 9.0499999875143740 7.2851094606435787
76 1 98.7537060220574432 12.6699999825201246 7.2851094606435787
77 1 98.7537060220574432 16.2899999775258735 7.2851094606435787
78 1 98.7537060220574432 19.9099999725316223 7.2851094606435787
79 1 1.6189132134763513 1.8099999975028760 15.3796755280253343
80 1 1.6189132134763511 5.4299999925086251 15.3796755280253343
81 1 1.6189132134763506 9.0499999875143757 15.3796755280253343
82 1 1.6189132134763504 12.6699999825201264 15.3796755280253343
83 1 1.6189132134763500 16.2899999775258735 15.3796755280253343
84 1 1.6189132134763498 19.9099999725316223 15.3796755280253343
85 1 9.7134792808581079 1.8099999975028760 15.3796755280253343
86 1 9.7134792808581079 5.4299999925086251 15.3796755280253343
87 1 9.7134792808581079 9.0499999875143757 15.3796755280253343
88 1 9.7134792808581061 12.6699999825201264 15.3796755280253343
89 1 9.7134792808581061 16.2899999775258735 15.3796755280253343
90 1 9.7134792808581061 19.9099999725316223 15.3796755280253343
91 1 17.8080453482398653 1.8099999975028760 15.3796755280253343
92 1 17.8080453482398653 5.4299999925086251 15.3796755280253343
93 1 17.8080453482398653 9.0499999875143757 15.3796755280253343
94 1 17.8080453482398653 12.6699999825201264 15.3796755280253343
95 1 17.8080453482398653 16.2899999775258735 15.3796755280253343
96 1 17.8080453482398617 19.9099999725316223 15.3796755280253343
97 1 25.9026114156216245 1.8099999975028760 15.3796755280253343
98 1 25.9026114156216245 5.4299999925086251 15.3796755280253343
99 1 25.9026114156216245 9.0499999875143757 15.3796755280253343
100 1 25.9026114156216245 12.6699999825201264 15.3796755280253343
101 1 25.9026114156216245 16.2899999775258735 15.3796755280253343
102 1 25.9026114156216209 19.9099999725316223 15.3796755280253343
103 1 33.9971774830033837 1.8099999975028760 15.3796755280253343
104 1 33.9971774830033837 5.4299999925086251 15.3796755280253343
105 1 33.9971774830033837 9.0499999875143757 15.3796755280253343
106 1 33.9971774830033837 12.6699999825201264 15.3796755280253343
107 1 33.9971774830033837 16.2899999775258735 15.3796755280253343
108 1 33.9971774830033837 19.9099999725316223 15.3796755280253343
109 1 42.0917435503851394 1.8099999975028760 15.3796755280253343
110 1 42.0917435503851394 5.4299999925086251 15.3796755280253343
111 1 42.0917435503851394 9.0499999875143757 15.3796755280253343
112 1 42.0917435503851394 12.6699999825201264 15.3796755280253343
113 1 42.0917435503851394 16.2899999775258735 15.3796755280253343
114 1 42.0917435503851394 19.9099999725316223 15.3796755280253343
115 1 50.1863096177668950 1.8099999975028760 15.3796755280253343
116 1 50.1863096177668950 5.4299999925086251 15.3796755280253343
117 1 50.1863096177668950 9.0499999875143757 15.3796755280253343
118 1 50.1863096177668950 12.6699999825201264 15.3796755280253343
119 1 50.1863096177668950 16.2899999775258735 15.3796755280253343
120 1 50.1863096177668950 19.9099999725316223 15.3796755280253343
121 1 58.2808756851486578 1.8099999975028760 15.3796755280253343
122 1 58.2808756851486578 5.4299999925086251 15.3796755280253343
123 1 58.2808756851486578 9.0499999875143757 15.3796755280253343
124 1 58.2808756851486578 12.6699999825201264 15.3796755280253343
125 1 58.2808756851486578 16.2899999775258735 15.3796755280253343
126 1 58.2808756851486578 19.9099999725316223 15.3796755280253343
127 1 66.3754417525304063 1.8099999975028760 15.3796755280253343
128 1 66.3754417525304063 5.4299999925086251 15.3796755280253343
129 1 66.3754417525304063 9.0499999875143757 15.3796755280253343
130 1 66.3754417525304063 12.6699999825201264 15.3796755280253343
131 1 66.3754417525304063 16.2899999775258735 15.3796755280253343
132 1 66.3754417525304063 19.9099999725316223 15.3796755280253343
133 1 74.4700078199121549 1.8099999975028760 15.3796755280253343
134 1 74.4700078199121549 5.4299999925086251 15.3796755280253343
135 1 74.4700078199121549 9.0499999875143757 15.3796755280253343
136 1 74.4700078199121549 12.6699999825201264 15.3796755280253343
137 1 74.4700078199121549 16.2899999775258735 15.3796755280253343
138 1 74.4700078199121549 19.9099999725316223 15.3796755280253343
139 1 82.5645738872939177 1.8099999975028760 15.3796755280253343
140 1 82.5645738872939177 5.4299999925086251 15.3796755280253343
141 1 82.5645738872939177 9.0499999875143757 15.3796755280253343
142 1 82.5645738872939177 12.6699999825201264 15.3796755280253343
143 1 82.5645738872939177 16.2899999775258735 15.3796755280253343
144 1 82.5645738872939177 19.9099999725316223 15.3796755280253343
145 1 90.6591399546756804 1.8099999975028760 15.3796755280253343
146 1 90.6591399546756804 5.4299999925086251 15.3796755280253343
147 1 90.6591399546756804 9.0499999875143757 15.3796755280253343
148 1 90.6591399546756804 12.6699999825201264 15.3796755280253343
149 1 90.6591399546756804 16.2899999775258735 15.3796755280253343
150 1 90.6591399546756804 19.9099999725316223 15.3796755280253343
151 1 98.7537060220574432 1.8099999975028760 15.3796755280253343
152 1 98.7537060220574432 5.4299999925086251 15.3796755280253343
153 1 98.7537060220574432 9.0499999875143757 15.3796755280253343
154 1 98.7537060220574432 12.6699999825201264 15.3796755280253343
155 1 98.7537060220574432 16.2899999775258735 15.3796755280253343
156 1 98.7537060220574432 19.9099999725316223 15.3796755280253343
157 1 1.6189132134763511 1.8099999975028767 23.4742415954070900
158 1 1.6189132134763509 5.4299999925086260 23.4742415954070900
159 1 1.6189132134763504 9.0499999875143757 23.4742415954070900
160 1 1.6189132134763502 12.6699999825201264 23.4742415954070900
161 1 1.6189132134763498 16.2899999775258770 23.4742415954070900
162 1 1.6189132134763495 19.9099999725316259 23.4742415954070900
163 1 9.7134792808581079 1.8099999975028767 23.4742415954070900
164 1 9.7134792808581079 5.4299999925086260 23.4742415954070900
165 1 9.7134792808581079 9.0499999875143757 23.4742415954070900
166 1 9.7134792808581061 12.6699999825201264 23.4742415954070900
167 1 9.7134792808581061 16.2899999775258770 23.4742415954070900
168 1 9.7134792808581061 19.9099999725316259 23.4742415954070900
169 1 17.8080453482398653 1.8099999975028767 23.4742415954070900
170 1 17.8080453482398653 5.4299999925086260 23.4742415954070900
171 1 17.8080453482398653 9.0499999875143757 23.4742415954070900
172 1 17.8080453482398653 12.6699999825201264 23.4742415954070900
173 1 17.8080453482398653 16.2899999775258770 23.4742415954070900
174 1 17.8080453482398617 19.9099999725316259 23.4742415954070900
175 1 25.9026114156216245 1.8099999975028767 23.4742415954070900
176 1 25.9026114156216245 5.4299999925086260 23.4742415954070900
177 1 25.9026114156216245 9.0499999875143757 23.4742415954070900
178 1 25.9026114156216245 12.6699999825201264 23.4742415954070900
179 1 25.9026114156216245 16.2899999775258770 23.4742415954070900
180 1 25.9026114156216209 19.9099999725316259 23.4742415954070900
181 1 33.9971774830033837 1.8099999975028767 23.4742415954070900
182 1 33.9971774830033837 5.4299999925086260 23.4742415954070900
183 1 33.9971774830033837 9.0499999875143757 23.4742415954070900
184 1 33.9971774830033837 12.6699999825201264 23.4742415954070900
185 1 33.9971774830033837 16.2899999775258770 23.4742415954070900
186 1 33.9971774830033837 19.9099999725316259 23.4742415954070900
187 1 42.0917435503851394 1.8099999975028767 23.4742415954070900
188 1 42.0917435503851394 5.4299999925086260 23.4742415954070900
189 1 42.0917435503851394 9.0499999875143757 23.4742415954070900
190 1 42.0917435503851394 12.6699999825201264 23.4742415954070900
191 1 42.0917435503851394 16.2899999775258770 23.4742415954070900
192 1 42.0917435503851394 19.9099999725316259 23.4742415954070900
193 1 50.1863096177668950 1.8099999975028767 23.4742415954070900
194 1 50.1863096177668950 5.4299999925086260 23.4742415954070900
195 1 50.1863096177668950 9.0499999875143757 23.4742415954070900
196 1 50.1863096177668950 12.6699999825201264 23.4742415954070900
197 1 50.1863096177668950 16.2899999775258770 23.4742415954070900
198 1 50.1863096177668950 19.9099999725316259 23.4742415954070900
199 1 58.2808756851486578 1.8099999975028767 23.4742415954070900
200 1 58.2808756851486578 5.4299999925086260 23.4742415954070900
201 1 58.2808756851486578 9.0499999875143757 23.4742415954070900
202 1 58.2808756851486578 12.6699999825201264 23.4742415954070900
203 1 58.2808756851486578 16.2899999775258770 23.4742415954070900
204 1 58.2808756851486578 19.9099999725316259 23.4742415954070900
205 1 66.3754417525304063 1.8099999975028767 23.4742415954070900
206 1 66.3754417525304063 5.4299999925086260 23.4742415954070900
207 1 66.3754417525304063 9.0499999875143757 23.4742415954070900
208 1 66.3754417525304063 12.6699999825201264 23.4742415954070900
209 1 66.3754417525304063 16.2899999775258770 23.4742415954070900
210 1 66.3754417525304063 19.9099999725316259 23.4742415954070900
211 1 74.4700078199121549 1.8099999975028767 23.4742415954070900
212 1 74.4700078199121549 5.4299999925086260 23.4742415954070900
213 1 74.4700078199121549 9.0499999875143757 23.4742415954070900
214 1 74.4700078199121549 12.6699999825201264 23.4742415954070900
215 1 74.4700078199121549 16.2899999775258770 23.4742415954070900
216 1 74.4700078199121549 19.9099999725316259 23.4742415954070900
217 1 82.5645738872939177 1.8099999975028767 23.4742415954070900
218 1 82.5645738872939177 5.4299999925086260 23.4742415954070900
219 1 82.5645738872939177 9.0499999875143757 23.4742415954070900
220 1 82.5645738872939177 12.6699999825201264 23.4742415954070900
221 1 82.5645738872939177 16.2899999775258770 23.4742415954070900
222 1 82.5645738872939177 19.9099999725316259 23.4742415954070900
223 1 90.6591399546756804 1.8099999975028767 23.4742415954070900
224 1 90.6591399546756804 5.4299999925086260 23.4742415954070900
225 1 90.6591399546756804 9.0499999875143757 23.4742415954070900
226 1 90.6591399546756804 12.6699999825201264 23.4742415954070900
227 1 90.6591399546756804 16.2899999775258770 23.4742415954070900
228 1 90.6591399546756804 19.9099999725316259 23.4742415954070900
229 1 98.7537060220574432 1.8099999975028767 23.4742415954070900
230 1 98.7537060220574432 5.4299999925086260 23.4742415954070900
231 1 98.7537060220574432 9.0499999875143757 23.4742415954070900
232 1 98.7537060220574432 12.6699999825201264 23.4742415954070900
233 1 98.7537060220574432 16.2899999775258770 23.4742415954070900
234 1 98.7537060220574432 19.9099999725316259 23.4742415954070900
235 1 0.8094566067381761 0.0000000000000005 5.6661962471672283
236 1 0.8094566067381758 3.6199999950057498 5.6661962471672283
237 1 0.8094566067381754 7.2399999900114995 5.6661962471672283
238 1 0.8094566067381751 10.8599999850172484 5.6661962471672283
239 1 0.8094566067381748 14.4799999800229973 5.6661962471672283
240 1 0.8094566067381744 18.0999999750287479 5.6661962471672283
241 1 8.9040226741199326 0.0000000000000005 5.6661962471672283
242 1 8.9040226741199326 3.6199999950057498 5.6661962471672283
243 1 8.9040226741199326 7.2399999900114995 5.6661962471672283
244 1 8.9040226741199309 10.8599999850172484 5.6661962471672283
245 1 8.9040226741199309 14.4799999800229973 5.6661962471672283
246 1 8.9040226741199309 18.0999999750287479 5.6661962471672283
247 1 16.9985887415016919 0.0000000000000005 5.6661962471672283
248 1 16.9985887415016919 3.6199999950057498 5.6661962471672283
249 1 16.9985887415016919 7.2399999900114995 5.6661962471672283
250 1 16.9985887415016919 10.8599999850172484 5.6661962471672283
251 1 16.9985887415016919 14.4799999800229973 5.6661962471672283
252 1 16.9985887415016919 18.0999999750287479 5.6661962471672283
253 1 25.0931548088834475 0.0000000000000005 5.6661962471672283
254 1 25.0931548088834475 3.6199999950057498 5.6661962471672283
255 1 25.0931548088834475 7.2399999900114995 5.6661962471672283
256 1 25.0931548088834475 10.8599999850172484 5.6661962471672283
257 1 25.0931548088834475 14.4799999800229973 5.6661962471672283
258 1 25.0931548088834475 18.0999999750287479 5.6661962471672283
259 1 33.1877208762652032 0.0000000000000005 5.6661962471672283
260 1 33.1877208762652032 3.6199999950057498 5.6661962471672283
261 1 33.1877208762652032 7.2399999900114995 5.6661962471672283
262 1 33.1877208762652032 10.8599999850172484 5.6661962471672283
263 1 33.1877208762652032 14.4799999800229973 5.6661962471672283
264 1 33.1877208762652032 18.0999999750287479 5.6661962471672283
265 1 41.2822869436469588 0.0000000000000005 5.6661962471672274
266 1 41.2822869436469588 3.6199999950057498 5.6661962471672274
267 1 41.2822869436469588 7.2399999900114995 5.6661962471672274
268 1 41.2822869436469588 10.8599999850172484 5.6661962471672274
269 1 41.2822869436469588 14.4799999800229973 5.6661962471672274
270 1 41.2822869436469588 18.0999999750287479 5.6661962471672274
271 1 49.3768530110287216 0.0000000000000005 5.6661962471672274
272 1 49.3768530110287216 3.6199999950057498 5.6661962471672274
273 1 49.3768530110287216 7.2399999900114995 5.6661962471672274
274 1 49.3768530110287216 10.8599999850172484 5.6661962471672274
275 1 49.3768530110287216 14.4799999800229973 5.6661962471672274
276 1 49.3768530110287216 18.0999999750287479 5.6661962471672274
277 1 57.4714190784104701 0.0000000000000005 5.6661962471672274
278 1 57.4714190784104701 3.6199999950057498 5.6661962471672274
279 1 57.4714190784104701 7.2399999900114995 5.6661962471672274
280 1 57.4714190784104701 10.8599999850172484 5.6661962471672274
281 1 57.4714190784104701 14.4799999800229973 5.6661962471672274
282 1 57.4714190784104701 18.0999999750287479 5.6661962471672274
283 1 65.5659851457922400 0.0000000000000005 5.6661962471672274
284 1 65.5659851457922400 3.6199999950057498 5.6661962471672274
285 1 65.5659851457922400 7.2399999900114995 5.6661962471672274
286 1 65.5659851457922400 10.8599999850172484 5.6661962471672274
287 1 65.5659851457922400 14.4799999800229973 5.6661962471672274
288 1 65.5659851457922400 18.0999999750287479 5.6661962471672274
289 1 73.6605512131739886 0.0000000000000005 5.6661962471672274
290 1 73.6605512131739886 3.6199999950057498 5.6661962471672274
291 1 73.6605512131739886 7.2399999900114995 5.6661962471672274
292 1 73.6605512131739886 10.8599999850172484 5.6661962471672274
293 1 73.6605512131739886 14.4799999800229973 5.6661962471672274
294 1 73.6605512131739886 18.0999999750287479 5.6661962471672274
295 1 81.7551172805557513 0.0000000000000005 5.6661962471672274
296 1 81.7551172805557513 3.6199999950057498 5.6661962471672274
297 1 81.7551172805557513 7.2399999900114995 5.6661962471672274
298 1 81.7551172805557513 10.8599999850172484 5.6661962471672274
299 1 81.7551172805557513 14.4799999800229973 5.6661962471672274
300 1 81.7551172805557513 18.0999999750287479 5.6661962471672274
301 1 89.8496833479374999 0.0000000000000005 5.6661962471672274
302 1 89.8496833479374999 3.6199999950057498 5.6661962471672274
303 1 89.8496833479374999 7.2399999900114995 5.6661962471672274
304 1 89.8496833479374999 10.8599999850172484 5.6661962471672274
305 1 89.8496833479374999 14.4799999800229973 5.6661962471672274
306 1 89.8496833479374999 18.0999999750287479 5.6661962471672274
307 1 97.9442494153192627 0.0000000000000005 5.6661962471672274
308 1 97.9442494153192627 3.6199999950057498 5.6661962471672274
309 1 97.9442494153192627 7.2399999900114995 5.6661962471672274
310 1 97.9442494153192627 10.8599999850172484 5.6661962471672274
311 1 97.9442494153192627 14.4799999800229973 5.6661962471672274
312 1 97.9442494153192627 18.0999999750287479 5.6661962471672274
313 1 0.8094566067381759 0.0000000000000011 13.7607623145489839
314 1 0.8094566067381755 3.6199999950057502 13.7607623145489839
315 1 0.8094566067381752 7.2399999900114995 13.7607623145489839
316 1 0.8094566067381749 10.8599999850172502 13.7607623145489839
317 1 0.8094566067381745 14.4799999800229990 13.7607623145489839
318 1 0.8094566067381742 18.0999999750287479 13.7607623145489839
319 1 8.9040226741199326 0.0000000000000011 13.7607623145489839
320 1 8.9040226741199326 3.6199999950057502 13.7607623145489839
321 1 8.9040226741199326 7.2399999900114995 13.7607623145489839
322 1 8.9040226741199309 10.8599999850172502 13.7607623145489839
323 1 8.9040226741199309 14.4799999800229990 13.7607623145489839
324 1 8.9040226741199309 18.0999999750287479 13.7607623145489839
325 1 16.9985887415016919 0.0000000000000011 13.7607623145489839
326 1 16.9985887415016919 3.6199999950057502 13.7607623145489839
327 1 16.9985887415016919 7.2399999900114995 13.7607623145489839
328 1 16.9985887415016919 10.8599999850172502 13.7607623145489839
329 1 16.9985887415016919 14.4799999800229990 13.7607623145489839
330 1 16.9985887415016919 18.0999999750287479 13.7607623145489839
331 1 25.0931548088834475 0.0000000000000011 13.7607623145489839
332 1 25.0931548088834475 3.6199999950057502 13.7607623145489839
333 1 25.0931548088834475 7.2399999900114995 13.7607623145489839
334 1 25.0931548088834475 10.8599999850172502 13.7607623145489839
335 1 25.0931548088834475 14.4799999800229990 13.7607623145489839
336 1 25.0931548088834475 18.0999999750287479 13.7607623145489839
337 1 33.1877208762652032 0.0000000000000011 13.7607623145489839
338 1 33.1877208762652032 3.6199999950057502 13.7607623145489839
339 1 33.1877208762652032 7.2399999900114995 13.7607623145489839
340 1 33.1877208762652032 10.8599999850172502 13.7607623145489839
341 1 33.1877208762652032 14.4799999800229990 13.7607623145489839
342 1 33.1877208762652032 18.0999999750287479 13.7607623145489839
343 1 41.2822869436469588 0.0000000000000011 13.7607623145489839
344 1 41.2822869436469588 3.6199999950057502 13.7607623145489839
345 1 41.2822869436469588 7.2399999900114995 13.7607623145489839
346 1 41.2822869436469588 10.8599999850172502 13.7607623145489839
347 1 41.2822869436469588 14.4799999800229990 13.7607623145489839
348 1 41.2822869436469588 18.0999999750287479 13.7607623145489839
349 1 49.3768530110287216 0.0000000000000011 13.7607623145489839
350 1 49.3768530110287216 3.6199999950057502 13.7607623145489839
351 1 49.3768530110287216 7.2399999900114995 13.7607623145489839
352 1 49.3768530110287216 10.8599999850172502 13.7607623145489839
353 1 49.3768530110287216 14.4799999800229990 13.7607623145489839
354 1 49.3768530110287216 18.0999999750287479 13.7607623145489839
355 1 57.4714190784104701 0.0000000000000011 13.7607623145489839
356 1 57.4714190784104701 3.6199999950057502 13.7607623145489839
357 1 57.4714190784104701 7.2399999900114995 13.7607623145489839
358 1 57.4714190784104701 10.8599999850172502 13.7607623145489839
359 1 57.4714190784104701 14.4799999800229990 13.7607623145489839
360 1 57.4714190784104701 18.0999999750287479 13.7607623145489839
361 1 65.5659851457922400 0.0000000000000011 13.7607623145489839
362 1 65.5659851457922400 3.6199999950057502 13.7607623145489839
363 1 65.5659851457922400 7.2399999900114995 13.7607623145489839
364 1 65.5659851457922400 10.8599999850172502 13.7607623145489839
365 1 65.5659851457922400 14.4799999800229990 13.7607623145489839
366 1 65.5659851457922400 18.0999999750287479 13.7607623145489839
367 1 73.6605512131739886 0.0000000000000011 13.7607623145489839
368 1 73.6605512131739886 3.6199999950057502 13.7607623145489839
369 1 73.6605512131739886 7.2399999900114995 13.7607623145489839
370 1 73.6605512131739886 10.8599999850172502 13.7607623145489839
371 1 73.6605512131739886 14.4799999800229990 13.7607623145489839
372 1 73.6605512131739886 18.0999999750287479 13.7607623145489839
373 1 81.7551172805557513 0.0000000000000011 13.7607623145489839
374 1 81.7551172805557513 3.6199999950057502 13.7607623145489839
375 1 81.7551172805557513 7.2399999900114995 13.7607623145489839
376 1 81.7551172805557513 10.8599999850172502 13.7607623145489839
377 1 81.7551172805557513 14.4799999800229990 13.7607623145489839
378 1 81.7551172805557513 18.0999999750287479 13.7607623145489839
379 1 89.8496833479374999 0.0000000000000011 13.7607623145489821
380 1 89.8496833479374999 3.6199999950057502 13.7607623145489821
381 1 89.8496833479374999 7.2399999900114995 13.7607623145489821
382 1 89.8496833479374999 10.8599999850172502 13.7607623145489821
383 1 89.8496833479374999 14.4799999800229990 13.7607623145489821
384 1 89.8496833479374999 18.0999999750287479 13.7607623145489821
385 1 97.9442494153192627 0.0000000000000011 13.7607623145489821
386 1 97.9442494153192627 3.6199999950057502 13.7607623145489821
387 1 97.9442494153192627 7.2399999900114995 13.7607623145489821
388 1 97.9442494153192627 10.8599999850172502 13.7607623145489821
389 1 97.9442494153192627 14.4799999800229990 13.7607623145489821
390 1 97.9442494153192627 18.0999999750287479 13.7607623145489821
391 1 0.8094566067381758 0.0000000000000018 21.8553283819307396
392 1 0.8094566067381754 3.6199999950057511 21.8553283819307396
393 1 0.8094566067381751 7.2399999900115004 21.8553283819307396
394 1 0.8094566067381748 10.8599999850172502 21.8553283819307396
395 1 0.8094566067381744 14.4799999800229990 21.8553283819307396
396 1 0.8094566067381741 18.0999999750287479 21.8553283819307396
397 1 8.9040226741199326 0.0000000000000018 21.8553283819307396
398 1 8.9040226741199326 3.6199999950057511 21.8553283819307396
399 1 8.9040226741199326 7.2399999900115004 21.8553283819307396
400 1 8.9040226741199309 10.8599999850172502 21.8553283819307396
401 1 8.9040226741199309 14.4799999800229990 21.8553283819307396
402 1 8.9040226741199309 18.0999999750287479 21.8553283819307396
403 1 16.9985887415016919 0.0000000000000018 21.8553283819307396
404 1 16.9985887415016919 3.6199999950057511 21.8553283819307396
405 1 16.9985887415016919 7.2399999900115004 21.8553283819307396
406 1 16.9985887415016919 10.8599999850172502 21.8553283819307396
407 1 16.9985887415016919 14.4799999800229990 21.8553283819307396
408 1 16.9985887415016919 18.0999999750287479 21.8553283819307396
409 1 25.0931548088834475 0.0000000000000018 21.8553283819307396
410 1 25.0931548088834475 3.6199999950057511 21.8553283819307396
411 1 25.0931548088834475 7.2399999900115004 21.8553283819307396
412 1 25.0931548088834475 10.8599999850172502 21.8553283819307396
413 1 25.0931548088834475 14.4799999800229990 21.8553283819307396
414 1 25.0931548088834475 18.0999999750287479 21.8553283819307396
415 1 33.1877208762652032 0.0000000000000018 21.8553283819307396
416 1 33.1877208762652032 3.6199999950057511 21.8553283819307396
417 1 33.1877208762652032 7.2399999900115004 21.8553283819307396
418 1 33.1877208762652032 10.8599999850172502 21.8553283819307396
419 1 33.1877208762652032 14.4799999800229990 21.8553283819307396
420 1 33.1877208762652032 18.0999999750287479 21.8553283819307396
421 1 41.2822869436469588 0.0000000000000018 21.8553283819307396
422 1 41.2822869436469588 3.6199999950057511 21.8553283819307396
423 1 41.2822869436469588 7.2399999900115004 21.8553283819307396
424 1 41.2822869436469588 10.8599999850172502 21.8553283819307396
425 1 41.2822869436469588 14.4799999800229990 21.8553283819307396
426 1 41.2822869436469588 18.0999999750287479 21.8553283819307396
427 1 49.3768530110287216 0.0000000000000018 21.8553283819307396
428 1 49.3768530110287216 3.6199999950057511 21.8553283819307396
429 1 49.3768530110287216 7.2399999900115004 21.8553283819307396
430 1 49.3768530110287216 10.8599999850172502 21.8553283819307396
431 1 49.3768530110287216 14.4799999800229990 21.8553283819307396
432 1 49.3768530110287216 18.0999999750287479 21.8553283819307396
433 1 57.4714190784104701 0.0000000000000018 21.8553283819307396
434 1 57.4714190784104701 3.6199999950057511 21.8553283819307396
435 1 57.4714190784104701 7.2399999900115004 21.8553283819307396
436 1 57.4714190784104701 10.8599999850172502 21.8553283819307396
437 1 57.4714190784104701 14.4799999800229990 21.8553283819307396
438 1 57.4714190784104701 18.0999999750287479 21.8553283819307396
439 1 65.5659851457922400 0.0000000000000018 21.8553283819307396
440 1 65.5659851457922400 3.6199999950057511 21.8553283819307396
441 1 65.5659851457922400 7.2399999900115004 21.8553283819307396
442 1 65.5659851457922400 10.8599999850172502 21.8553283819307396
443 1 65.5659851457922400 14.4799999800229990 21.8553283819307396
444 1 65.5659851457922400 18.0999999750287479 21.8553283819307396
445 1 73.6605512131739886 0.0000000000000018 21.8553283819307396
446 1 73.6605512131739886 3.6199999950057511 21.8553283819307396
447 1 73.6605512131739886 7.2399999900115004 21.8553283819307396
448 1 73.6605512131739886 10.8599999850172502 21.8553283819307396
449 1 73.6605512131739886 14.4799999800229990 21.8553283819307396
450 1 73.6605512131739886 18.0999999750287479 21.8553283819307396
451 1 81.7551172805557513 0.0000000000000018 21.8553283819307396