ITEM: TIMESTEP
156
ITEM: NUMBER OF ATOMS
9360
ITEM: BOX BOUNDS xy xz yz ss pp pp
-2.1045871775002101e-02 2.0985640707177112e+02 -0.0000000000000000e+00
0.0000000000000000e+00 2.1719999970000000e+01 -0.0000000000000000e+00
0.0000000000000000e+00 2.4283698200000000e+01 0.0000000000000000e+00
ITEM: ATOMS id type xu yu zu c_eng
1 1 1.61891 1.81 7.28511 -3.43896
2 1 1.61891 5.43 7.28511 -3.43896
3 1 1.61891 9.05 7.28511 -3.43896
4 1 1.61891 12.67 7.28511 -3.43896
5 1 1.61891 16.29 7.28511 -3.43896
6 1 1.61891 19.91 7.28511 -3.43896
7 1 9.71348 1.81 7.28511 -3.54
8 1 9.71348 5.43 7.28511 -3.54
9 1 9.71348 9.05 7.28511 -3.54
10 1 9.71348 12.67 7.28511 -3.54
11 1 9.71348 16.29 7.28511 -3.54
12 1 9.71348 19.91 7.28511 -3.54
79 1 1.61891 1.81 15.3797 -3.43896
80 1 1.61891 5.43 15.3797 -3.43896
81 1 1.61891 9.05 15.3797 -3.43896
82 1 1.61891 12.67 15.3797 -3.43896
83 1 1.61891 16.29 15.3797 -3.43896
84 1 1.61891 19.91 15.3797 -3.43896
85 1 9.71348 1.81 15.3797 -3.54
86 1 9.71348 5.43 15.3797 -3.54
87 1 9.71348 9.05 15.3797 -3.54
88 1 9.71348 12.67 15.3797 -3.54
89 1 9.71348 16.29 15.3797 -3.54
90 1 9.71348 19.91 15.3797 -3.54
157 1 1.61891 1.81 23.4742 -3.43896
158 1 1.61891 5.43 23.4742 -3.43896
159 1 1.61891 9.05 23.4742 -3.43896
160 1 1.61891 12.67 23.4742 -3.43896
161 1 1.61891 16.29 23.4742 -3.43896
162 1 1.61891 19.91 23.4742 -3.43896
163 1 9.71348 1.81 23.4742 -3.54
164 1 9.71348 5.43 23.4742 -3.54
165 1 9.71348 9.05 23.4742 -3.54
166 1 9.71348 12.67 23.4742 -3.54
167 1 9.71348 16.29 23.4742 -3.54
168 1 9.71348 19.91 23.4742 -3.54
235 1 0.809457 5e-16 5.6662 -3.16894
236 1 0.809457 3.62 5.6662 -3.16894
237 1 0.809457 7.24 5.6662 -3.16894
238 1 0.809457 10.86 5.6662 -3.16894
239 1 0.809457 14.48 5.6662 -3.16894
240 1 0.809457 18.1 5.6662 -3.16894
241 1 8.90402 5e-16 5.6662 -3.54
242 1 8.90402 3.62 5.6662 -3.54
243 1 8.90402 7.24 5.6662 -3.54
244 1 8.90402 10.86 5.6662 -3.54
245 1 8.90402 14.48 5.6662 -3.54
246 1 8.90402 18.1 5.6662 -3.54
247 1 16.9986 5e-16 5.6662 -3.54
248 1 16.9986 3.62 5.6662 -3.54
249 1 16.9986 7.24 5.6662 -3.54
250 1 16.9986 10.86 5.6662 -3.54
251 1 16.9986 14.48 5.6662 -3.54
252 1 16.9986 18.1 5.6662 -3.54
313 1 0.809457 1.1e-15 13.7608 -3.16894
314 1 0.809457 3.62 13.7608 -3.16894
315 1 0.809457 7.24 13.7608 -3.16894
316 1 0.809457 10.86 13.7608 -3.16894
317 1 0.809457 14.48 13.7608 -3.16894
318 1 0.809457 18.1 13.7608 -3.16894
319 1 8.90402 1.1e-15 13.7608 -3.54
320 1 8.90402 3.62 13.7608 -3.54
321 1 8.90402 7.24 13.7608 -3.54
322 1 8.90402 10.86 13.7608 -3.54
323 1 8.90402 14.48 13.7608 -3.54
324 1 8.90402 18.1 13.7608 -3.54
325 1 16.9986 1.1e-15 13.7608 -3.54
326 1 16.9986 3.62 13.7608 -3.54
327 1 16.9986 7.24 13.7608 -3.54
328 1 16.9986 10.86 13.7608 -3.54
329 1 16.9986 14.48 13.7608 -3.54
330 1 16.9986 18.1 13.7608 -3.54
391 1 0.809457 1.8e-15 21.8553 -3.16894
392 1 0.809457 3.62 21.8553 -3.16894
393 1 0.809457 7.24 21.8553 -3.16894
394 1 0.809457 10.86 21.8553 -3.16894
395 1 0.809457 14.48 21.8553 -3.16894
396 1 0.809457 18.1 21.8553 -3.16894
397 1 8.90402 1.8e-15 21.8553 -3.54
398 1 8.90402 3.62 21.8553 -3.54
399 1 8.90402 7.24 21.8553 -3.54
400 1 8.90402 10.86 21.8553 -3.54
401 1 8.90402 14.48 21.8553 -3.54
402 1 8.90402 18.1 21.8553 -3.54
403 1 16.9986 1.8e-15 21.8553 -3.54
404 1 16.9986 3.62 21.8553 -3.54
405 1 16.9986 7.24 21.8553 -3.54
406 1 16.9986 10.86 21.8553 -3.54
407 1 16.9986 14.48 21.8553 -3.54
408 1 16.9986 18.1 21.8553 -3.54
469 1 3.23783 5e-16 6.47565 -3.54
470 1 3.23783 3.62 6.47565 -3.54
471 1 3.23783 7.24 6.47565 -3.54
472 1 3.23783 10.86 6.47565 -3.54
473 1 3.23783 14.48 6.47565 -3.54
474 1 3.23783 18.1 6.47565 -3.54
475 1 11.3324 5e-16 6.47565 -3.54
476 1 11.3324 3.62 6.47565 -3.54
477 1 11.3324 7.24 6.47565 -3.54
478 1 11.3324 10.86 6.47565 -3.54
479 1 11.3324 14.48 6.47565 -3.54
480 1 11.3324 18.1 6.47565 -3.54
547 1 3.23783 1.2e-15 14.5702 -3.54
548 1 3.23783 3.62 14.5702 -3.54
549 1 3.23783 7.24 14.5702 -3.54
550 1 3.23783 10.86 14.5702 -3.54
551 1 3.23783 14.48 14.5702 -3.54
552 1 3.23783 18.1 14.5702 -3.54
553 1 11.3324 1.2e-15 14.5702 -3.54
554 1 11.3324 3.62 14.5702 -3.54
555 1 11.3324 7.24 14.5702 -3.54
556 1 11.3324 10.86 14.5702 -3.54
557 1 11.3324 14.48 14.5702 -3.54
558 1 11.3324 18.1 14.5702 -3.54
625 1 3.23783 1.8e-15 22.6648 -3.54
626 1 3.23783 3.62 22.6648 -3.54
627 1 3.23783 7.24 22.6648 -3.54
628 1 3.23783 10.86 22.6648 -3.54
629 1 3.23783 14.48 22.6648 -3.54
630 1 3.23783 18.1 22.6648 -3.54
631 1 11.3324 1.8e-15 22.6648 -3.54
632 1 11.3324 3.62 22.6648 -3.54
633 1 11.3324 7.24 22.6648 -3.54
634 1 11.3324 10.86 22.6648 -3.54
635 1 11.3324 14.48 22.6648 -3.54
636 1 11.3324 18.1 22.6648 -3.54
703 1 5.6662 6e-16 7.28511 -3.54
704 1 5.6662 3.62 7.28511 -3.54
705 1 5.6662 7.24 7.28511 -3.54
706 1 5.6662 10.86 7.28511 -3.54
707 1 5.6662 14.48 7.28511 -3.54
708 1 5.6662 18.1 7.28511 -3.54
709 1 13.7608 6e-16 7.28511 -3.54
710 1 13.7608 3.62 7.28511 -3.54
711 1 13.7608 7.24 7.28511 -3.54
712 1 13.7608 10.86 7.28511 -3.54
713 1 13.7608 14.48 7.28511 -3.54
714 1 13.7608 18.1 7.28511 -3.54
781 1 5.6662 1.2e-15 15.3797 -3.54
782 1 5.6662 3.62 15.3797 -3.54
783 1 5.6662 7.24 15.3797 -3.54
784 1 5.6662 10.86 15.3797 -3.54
785 1 5.6662 14.48 15.3797 -3.54
786 1 5.6662 18.1 15.3797 -3.54
787 1 13.7608 1.2e-15 15.3797 -3.54
788 1 13.7608 3.62 15.3797 -3.54
789 1 13.7608 7.24 15.3797 -3.54
790 1 13.7608 10.86 15.3797 -3.54
791 1 13.7608 14.48 15.3797 -3.54
792 1 13.7608 18.1 15.3797 -3.54
859 1 5.6662 1.9e-15 23.4742 -3.54
860 1 5.6662 3.62 23.4742 -3.54
861 1 5.6662 7.24 23.4742 -3.54
862 1 5.6662 10.86 23.4742 -3.54
863 1 5.6662 14.48 23.4742 -3.54
864 1 5.6662 18.1 23.4742 -3.54
865 1 13.7608 1.9e-15 23.4742 -3.54
866 1 13.7608 3.62 23.4742 -3.54
867 1 13.7608 7.24 23.4742 -3.54
868 1 13.7608 10.86 23.4742 -3.54
869 1 13.7608 14.48 23.4742 -3.54
870 1 13.7608 18.1 23.4742 -3.54
937 1 -1.00614e-16 1.81 4.04728 -2.66905
938 1 -4.96131e-16 5.43 4.04728 -2.66905
939 1 -7.94503e-16 9.05 4.04728 -2.66905
940 1 -1.09288e-15 12.67 4.04728 -2.66905
941 1 -1.4988e-15 16.29 4.04728 -2.66905
942 1 -1.80064e-15 19.91 4.04728 -2.66905
943 1 8.09457 1.81 4.04728 -3.54
944 1 8.09457 5.43 4.04728 -3.54
945 1 8.09457 9.05 4.04728 -3.54
946 1 8.09457 12.67 4.04728 -3.54
947 1 8.09457 16.29 4.04728 -3.54
948 1 8.09457 19.91 4.04728 -3.54
949 1 16.1891 1.81 4.04728 -3.54
950 1 16.1891 5.43 4.04728 -3.54
951 1 16.1891 9.05 4.04728 -3.54
952 1 16.1891 12.67 4.04728 -3.54
953 1 16.1891 16.29 4.04728 -3.54
954 1 16.1891 19.91 4.04728 -3.54
1015 1 -2.91434e-16 1.81 12.1418 -2.66905
1016 1 -6.00214e-16 5.43 12.1418 -2.66905
1017 1 -9.99201e-16 9.05 12.1418 -2.66905
1018 1 -1.29757e-15 12.67 12.1418 -2.66905
1019 1 -1.59595e-15 16.29 12.1418 -2.66905
1020 1 -1.98799e-15 19.91 12.1418 -2.66905
1021 1 8.09457 1.81 12.1418 -3.54
1022 1 8.09457 5.43 12.1418 -3.54
1023 1 8.09457 9.05 12.1418 -3.54
1024 1 8.09457 12.67 12.1418 -3.54
1025 1 8.09457 16.29 12.1418 -3.54
1026 1 8.09457 19.91 12.1418 -3.54
1027 1 16.1891 1.81 12.1418 -3.54
1028 1 16.1891 5.43 12.1418 -3.54
1029 1 16.1891 9.05 12.1418 -3.54
1030 1 16.1891 12.67 12.1418 -3.54
1031 1 16.1891 16.29 12.1418 -3.54
1032 1 16.1891 19.91 12.1418 -3.54
1093 1 -4.96131e-16 1.81 20.2364 -2.66905
1094 1 -7.94503e-16 5.43 20.2364 -2.66905
1095 1 -1.09288e-15 9.05 20.2364 -2.66905
1096 1 -1.4988e-15 12.67 20.2364 -2.66905
1097 1 -1.80064e-15 16.29 20.2364 -2.66905
1098 1 -2.09902e-15 19.91 20.2364 -2.66905
1099 1 8.09457 1.81 20.2364 -3.54
1100 1 8.09457 5.43 20.2364 -3.54
1101 1 8.09457 9.05 20.2364 -3.54
1102 1 8.09457 12.67 20.2364 -3.54
1103 1 8.09457 16.29 20.2364 -3.54
1104 1 8.09457 19.91 20.2364 -3.54
1105 1 16.1891 1.81 20.2364 -3.54
1106 1 16.1891 5.43 20.2364 -3.54
1107 1 16.1891 9.05 20.2364 -3.54
1108 1 16.1891 12.67 20.2364 -3.54
1109 1 16.1891 16.29 20.2364 -3.54
1110 1 16.1891 19.91 20.2364 -3.54
1171 1 2.42837 1.81 4.85674 -3.54051
1172 1 2.42837 5.43 4.85674 -3.54051
1173 1 2.42837 9.05 4.85674 -3.54051
1174 1 2.42837 12.67 4.85674 -3.54051
1175 1 2.42837 16.29 4.85674 -3.54051
1176 1 2.42837 19.91 4.85674 -3.54051
1177 1 10.5229 1.81 4.85674 -3.54
1178 1 10.5229 5.43 4.85674 -3.54
1179 1 10.5229 9.05 4.85674 -3.54
1180 1 10.5229 12.67 4.85674 -3.54
1181 1 10.5229 16.29 4.85674 -3.54
1182 1 10.5229 19.91 4.85674 -3.54
1249 1 2.42837 1.81 12.9513 -3.54051
1250 1 2.42837 5.43 12.9513 -3.54051
1251 1 2.42837 9.05 12.9513 -3.54051
1252 1 2.42837 12.67 12.9513 -3.54051
1253 1 2.42837 16.29 12.9513 -3.54051
1254 1 2.42837 19.91 12.9513 -3.54051
1255 1 10.5229 1.81 12.9513 -3.54
1256 1 10.5229 5.43 12.9513 -3.54
1257 1 10.5229 9.05 12.9513 -3.54
1258 1 10.5229 12.67 12.9513 -3.54
1259 1 10.5229 16.29 12.9513 -3.54
1260 1 10.5229 19.91 12.9513 -3.54
1327 1 2.42837 1.81 21.0459 -3.54051
1328 1 2.42837 5.43 21.0459 -3.54051
1329 1 2.42837 9.05 21.0459 -3.54051
1330 1 2.42837 12.67 21.0459 -3.54051
1331 1 2.42837 16.29 21.0459 -3.54051
1332 1 2.42837 19.91 21.0459 -3.54051
1333 1 10.5229 1.81 21.0459 -3.54
1334 1 10.5229 5.43 21.0459 -3.54
1335 1 10.5229 9.05 21.0459 -3.54
1336 1 10.5229 12.67 21.0459 -3.54
1337 1 10.5229 16.29 21.0459 -3.54
1338 1 10.5229 19.91 21.0459 -3.54
1405 1 1.61891 3e-16 3.23783 -3.43896
1406 1 1.61891 3.62 3.23783 -3.43896
1407 1 1.61891 7.24 3.23783 -3.43896
1408 1 1.61891 10.86 3.23783 -3.43896
1409 1 1.61891 14.48 3.23783 -3.43896
1410 1 1.61891 18.1 3.23783 -3.43896
1411 1 9.71348 3e-16 3.23783 -3.54
1412 1 9.71348 3.62 3.23783 -3.54
1413 1 9.71348 7.24 3.23783 -3.54
1414 1 9.71348 10.86 3.23783 -3.54
1415 1 9.71348 14.48 3.23783 -3.54
1416 1 9.71348 18.1 3.23783 -3.54
1483 1 1.61891 9e-16 11.3324 -3.43896
1484 1 1.61891 3.62 11.3324 -3.43896
1485 1 1.61891 7.24 11.3324 -3.43896
1486 1 1.61891 10.86 11.3324 -3.43896
1487 1 1.61891 14.48 11.3324 -3.43896
1488 1 1.61891 18.1 11.3324 -3.43896
1489 1 9.71348 9e-16 11.3324 -3.54
1490 1 9.71348 3.62 11.3324 -3.54
1491 1 9.71348 7.24 11.3324 -3.54
1492 1 9.71348 10.86 11.3324 -3.54
1493 1 9.71348 14.48 11.3324 -3.54
1494 1 9.71348 18.1 11.3324 -3.54
1561 1 1.61891 1.6e-15 19.427 -3.43896
1562 1 1.61891 3.62 19.427 -3.43896
1563 1 1.61891 7.24 19.427 -3.43896
1564 1 1.61891 10.86 19.427 -3.43896
1565 1 1.61891 14.48 19.427 -3.43896
1566 1 1.61891 18.1 19.427 -3.43896
1567 1 9.71348 1.6e-15 19.427 -3.54
1568 1 9.71348 3.62 19.427 -3.54
1569 1 9.71348 7.24 19.427 -3.54
1570 1 9.71348 10.86 19.427 -3.54
1571 1 9.71348 14.48 19.427 -3.54
1572 1 9.71348 18.1 19.427 -3.54
1639 1 4.85674 1.81 5.6662 -3.54
1640 1 4.85674 5.43 5.6662 -3.54
1641 1 4.85674 9.05 5.6662 -3.54
1642 1 4.85674 12.67 5.6662 -3.54
1643 1 4.85674 16.29 5.6662 -3.54
1644 1 4.85674 19.91 5.6662 -3.54
1645 1 12.9513 1.81 5.6662 -3.54
1646 1 12.9513 5.43 5.6662 -3.54
1647 1 12.9513 9.05 5.6662 -3.54
1648 1 12.9513 12.67 5.6662 -3.54
1649 1 12.9513 16.29 5.6662 -3.54
1650 1 12.9513 19.91 5.6662 -3.54
1717 1 4.85674 1.81 13.7608 -3.54
1718 1 4.85674 5.43 13.7608 -3.54
1719 1 4.85674 9.05 13.7608 -3.54
1720 1 4.85674 12.67 13.7608 -3.54
1721 1 4.85674 16.29 13.7608 -3.54
1722 1 4.85674 19.91 13.7608 -3.54
1723 1 12.9513 1.81 13.7608 -3.54
1724 1 12.9513 5.43 13.7608 -3.54
1725 1 12.9513 9.05 13.7608 -3.54
1726 1 12.9513 12.67 13.7608 -3.54
1727 1 12.9513 16.29 13.7608 -3.54
1728 1 12.9513 19.91 13.7608 -3.54
1795 1 4.85674 1.81 21.8553 -3.54
1796 1 4.85674 5.43 21.8553 -3.54
1797 1 4.85674 9.05 21.8553 -3.54
1798 1 4.85674 12.67 21.8553 -3.54
1799 1 4.85674 16.29 21.8553 -3.54
1800 1 4.85674 19.91 21.8553 -3.54
1801 1 12.9513 1.81 21.8553 -3.54
1802 1 12.9513 5.43 21.8553 -3.54
1803 1 12.9513 9.05 21.8553 -3.54
1804 1 12.9513 12.67 21.8553 -3.54
1805 1 12.9513 16.29 21.8553 -3.54
1806 1 12.9513 19.91 21.8553 -3.54
1873 1 4.04728 3e-16 4.04728 -3.54
1874 1 4.04728 3.62 4.04728 -3.54
1875 1 4.04728 7.24 4.04728 -3.54
1876 1 4.04728 10.86 4.04728 -3.54
1877 1 4.04728 14.48 4.04728 -3.54
1878 1 4.04728 18.1 4.04728 -3.54
1879 1 12.1418 3e-16 4.04728 -3.54
1880 1 12.1418 3.62 4.04728 -3.54
1881 1 12.1418 7.24 4.04728 -3.54
1882 1 12.1418 10.86 4.04728 -3.54
1883 1 12.1418 14.48 4.04728 -3.54
1884 1 12.1418 18.1 4.04728 -3.54
1951 1 4.04728 1e-15 12.1418 -3.54
1952 1 4.04728 3.62 12.1418 -3.54
1953 1 4.04728 7.24 12.1418 -3.54
1954 1 4.04728 10.86 12.1418 -3.54
1955 1 4.04728 14.48 12.1418 -3.54
1956 1 4.04728 18.1 12.1418 -3.54
1957 1 12.1418 1e-15 12.1418 -3.54
1958 1 12.1418 3.62 12.1418 -3.54
1959 1 12.1418 7.24 12.1418 -3.54
1960 1 12.1418 10.86 12.1418 -3.54
1961 1 12.1418 14.48 12.1418 -3.54
1962 1 12.1418 18.1 12.1418 -3.54
2029 1 4.04728 1.6e-15 20.2364 -3.54
2030 1 4.04728 3.62 20.2364 -3.54
2031 1 4.04728 7.24 20.2364 -3.54
2032 1 4.04728 10.86 20.2364 -3.54
2033 1 4.04728 14.48 20.2364 -3.54
2034 1 4.04728 18.1 20.2364 -3.54
2035 1 12.1418 1.6e-15 20.2364 -3.54
2036 1 12.1418 3.62 20.2364 -3.54
2037 1 12.1418 7.24 20.2364 -3.54
2038 1 12.1418 10.86 20.2364 -3.54
2039 1 12.1418 14.48 20.2364 -3.54
2040 1 12.1418 18.1 20.2364 -3.54
2107 1 7.28511 1.81 6.47565 -3.54
2108 1 7.28511 5.43 6.47565 -3.54
2109 1 7.28511 9.05 6.47565 -3.54
2110 1 7.28511 12.67 6.47565 -3.54
2111 1 7.28511 16.29 6.47565 -3.54
2112 1 7.28511 19.91 6.47565 -3.54
2113 1 15.3797 1.81 6.47565 -3.54
2114 1 15.3797 5.43 6.47565 -3.54
2115 1 15.3797 9.05 6.47565 -3.54
2116 1 15.3797 12.67 6.47565 -3.54
2117 1 15.3797 16.29 6.47565 -3.54
2118 1 15.3797 19.91 6.47565 -3.54
2185 1 7.28511 1.81 14.5702 -3.54
2186 1 7.28511 5.43 14.5702 -3.54
2187 1 7.28511 9.05 14.5702 -3.54
2188 1 7.28511 12.67 14.5702 -3.54
2189 1 7.28511 16.29 14.5702 -3.54
2190 1 7.28511 19.91 14.5702 -3.54
2191 1 15.3797 1.81 14.5702 -3.54
2192 1 15.3797 5.43 14.5702 -3.54
2193 1 15.3797 9.05 14.5702 -3.54
2194 1 15.3797 12.67 14.5702 -3.54
2195 1 15.3797 16.29 14.5702 -3.54
2196 1 15.3797 19.91 14.5702 -3.54
2263 1 7.28511 1.81 22.6648 -3.54
2264 1 7.28511 5.43 22.6648 -3.54
2265 1 7.28511 9.05 22.6648 -3.54
2266 1 7.28511 12.67 22.6648 -3.54
2267 1 7.28511 16.29 22.6648 -3.54
2268 1 7.28511 19.91 22.6648 -3.54
2269 1 15.3797 1.81 22.6648 -3.54
2270 1 15.3797 5.43 22.6648 -3.54
2271 1 15.3797 9.05 22.6648 -3.54
2272 1 15.3797 12.67 22.6648 -3.54
2273 1 15.3797 16.29 22.6648 -3.54
2274 1 15.3797 19.91 22.6648 -3.54
2341 1 6.47565 4e-16 4.85674 -3.54
2342 1 6.47565 3.62 4.85674 -3.54
2343 1 6.47565 7.24 4.85674 -3.54
2344 1 6.47565 10.86 4.85674 -3.54
2345 1 6.47565 14.48 4.85674 -3.54
2346 1 6.47565 18.1 4.85674 -3.54
2347 1 14.5702 4e-16 4.85674 -3.54
2348 1 14.5702 3.62 4.85674 -3.54
2349 1 14.5702 7.24 4.85674 -3.54
2350 1 14.5702 10.86 4.85674 -3.54
2351 1 14.5702 14.48 4.85674 -3.54
2352 1 14.5702 18.1 4.85674 -3.54
2419 1 6.47565 1e-15 12.9513 -3.54
2420 1 6.47565 3.62 12.9513 -3.54
2421 1 6.47565 7.24 12.9513 -3.54
2422 1 6.47565 10.86 12.9513 -3.54
2423 1 6.47565 14.48 12.9513 -3.54
2424 1 6.47565 18.1 12.9513 -3.54
2425 1 14.5702 1e-15 12.9513 -3.54
2426 1 14.5702 3.62 12.9513 -3.54
2427 1 14.5702 7.24 12.9513 -3.54
2428 1 14.5702 10.86 12.9513 -3.54
2429 1 14.5702 14.48 12.9513 -3.54
2430 1 14.5702 18.1 12.9513 -3.54
2497 1 6.47565 1.7e-15 21.0459 -3.54
2498 1 6.47565 3.62 21.0459 -3.54
2499 1 6.47565 7.24 21.0459 -3.54
2500 1 6.47565 10.86 21.0459 -3.54
2501 1 6.47565 14.48 21.0459 -3.54
2502 1 6.47565 18.1 21.0459 -3.54
2503 1 14.5702 1.7e-15 21.0459 -3.54
2504 1 14.5702 3.62 21.0459 -3.54
2505 1 14.5702 7.24 21.0459 -3.54
2506 1 14.5702 10.86 21.0459 -3.54
2507 1 14.5702 14.48 21.0459 -3.54
2508 1 14.5702 18.1 21.0459 -3.54
2575 1 0.809457 1.81 1.61891 -3.16894
2576 1 0.809457 5.43 1.61891 -3.16894
2577 1 0.809457 9.05 1.61891 -3.16894
2578 1 0.809457 12.67 1.61891 -3.16894
2579 1 0.809457 16.29 1.61891 -3.16894
2580 1 0.809457 19.91 1.61891 -3.16894
2581 1 8.90402 1.81 1.61891 -3.54
2582 1 8.90402 5.43 1.61891 -3.54
2583 1 8.90402 9.05 1.61891 -3.54
2584 1 8.90402 12.67 1.61891 -3.54
2585 1 8.90402 16.29 1.61891 -3.54
2586 1 8.90402 19.91 1.61891 -3.54
2587 1 16.9986 1.81 1.61891 -3.54
2588 1 16.9986 5.43 1.61891 -3.54
2589 1 16.9986 9.05 1.61891 -3.54
2590 1 16.9986 12.67 1.61891 -3.54
2591 1 16.9986 16.29 1.61891 -3.54
2592 1 16.9986 19.91 1.61891 -3.54
2653 1 0.809457 1.81 9.71348 -3.16894
2654 1 0.809457 5.43 9.71348 -3.16894
2655 1 0.809457 9.05 9.71348 -3.16894
2656 1 0.809457 12.67 9.71348 -3.16894
2657 1 0.809457 16.29 9.71348 -3.16894
2658 1 0.809457 19.91 9.71348 -3.16894
2659 1 8.90402 1.81 9.71348 -3.54
2660 1 8.90402 5.43 9.71348 -3.54
2661 1 8.90402 9.05 9.71348 -3.54
2662 1 8.90402 12.67 9.71348 -3.54
2663 1 8.90402 16.29 9.71348 -3.54
2664 1 8.90402 19.91 9.71348 -3.54
2665 1 16.9986 1.81 9.71348 -3.54
2666 1 16.9986 5.43 9.71348 -3.54
2667 1 16.9986 9.05 9.71348 -3.54
2668 1 16.9986 12.67 9.71348 -3.54
2669 1 16.9986 16.29 9.71348 -3.54
2670 1 16.9986 19.91 9.71348 -3.54
2731 1 0.809457 1.81 17.808 -3.16894
2732 1 0.809457 5.43 17.808 -3.16894
2733 1 0.809457 9.05 17.808 -3.16894
2734 1 0.809457 12.67 17.808 -3.16894
2735 1 0.809457 16.29 17.808 -3.16894
2736 1 0.809457 19.91 17.808 -3.16894
2737 1 8.90402 1.81 17.808 -3.54
2738 1 8.90402 5.43 17.808 -3.54
2739 1 8.90402 9.05 17.808 -3.54
2740 1 8.90402 12.67 17.808 -3.54
2741 1 8.90402 16.29 17.808 -3.54
2742 1 8.90402 19.91 17.808 -3.54
2743 1 16.9986 1.81 17.808 -3.54
2744 1 16.9986 5.43 17.808 -3.54
2745 1 16.9986 9.05 17.808 -3.54
2746 1 16.9986 12.67 17.808 -3.54
2747 1 16.9986 16.29 17.808 -3.54
2748 1 16.9986 19.91 17.808 -3.54
2809 1 6.93889e-18 0 0 -2.66905
2810 1 -2.91434e-16 3.62 0 -2.66905
2811 1 -7.00828e-16 7.24 0 -2.66905
2812 1 -9.99201e-16 10.86 0 -2.66905
2813 1 -1.29757e-15 14.48 0 -2.66905
2814 1 -1.59595e-15 18.1 0 -2.66905
2815 1 8.09457 0 0 -3.54
2816 1 8.09457 3.62 0 -3.54
2817 1 8.09457 7.24 0 -3.54
2818 1 8.09457 10.86 0 -3.54
2819 1 8.09457 14.48 0 -3.54
2820 1 8.09457 18.1 0 -3.54
2821 1 16.1891 0 0 -3.54
2822 1 16.1891 3.62 0 -3.54
2823 1 16.1891 7.24 0 -3.54
2824 1 16.1891 10.86 0 -3.54
2825 1 16.1891 14.48 0 -3.54
2826 1 16.1891 18.1 0 -3.54
2887 1 -1.97758e-16 7e-16 8.09457 -2.66905
2888 1 -4.96131e-16 3.62 8.09457 -2.66905
2889 1 -7.94503e-16 7.24 8.09457 -2.66905
2890 1 -1.20043e-15 10.86 8.09457 -2.66905
2891 1 -1.4988e-15 14.48 8.09457 -2.66905
2892 1 -1.80064e-15 18.1 8.09457 -2.66905
2893 1 8.09457 7e-16 8.09457 -3.54
2894 1 8.09457 3.62 8.09457 -3.54
2895 1 8.09457 7.24 8.09457 -3.54
2896 1 8.09457 10.86 8.09457 -3.54
2897 1 8.09457 14.48 8.09457 -3.54
2898 1 8.09457 18.1 8.09457 -3.54
2899 1 16.1891 7e-16 8.09457 -3.54
2900 1 16.1891 3.62 8.09457 -3.54
2901 1 16.1891 7.24 8.09457 -3.54
2902 1 16.1891 10.86 8.09457 -3.54
2903 1 16.1891 14.48 8.09457 -3.54
2904 1 16.1891 18.1 8.09457 -3.54
2965 1 -2.91434e-16 1.3e-15 16.1891 -2.66905
2966 1 -7.00828e-16 3.62 16.1891 -2.66905
2967 1 -9.99201e-16 7.24 16.1891 -2.66905
2968 1 -1.29757e-15 10.86 16.1891 -2.66905
2969 1 -1.70003e-15 14.48 16.1891 -2.66905
2970 1 -1.98799e-15 18.1 16.1891 -2.66905
2971 1 8.09457 1.3e-15 16.1891 -3.54
2972 1 8.09457 3.62 16.1891 -3.54
2973 1 8.09457 7.24 16.1891 -3.54
2974 1 8.09457 10.86 16.1891 -3.54
2975 1 8.09457 14.48 16.1891 -3.54
2976 1 8.09457 18.1 16.1891 -3.54
2977 1 16.1891 1.3e-15 16.1891 -3.54
2978 1 16.1891 3.62 16.1891 -3.54
2979 1 16.1891 7.24 16.1891 -3.54
2980 1 16.1891 10.86 16.1891 -3.54
2981 1 16.1891 14.48 16.1891 -3.54
2982 1 16.1891 18.1 16.1891 -3.54
3043 1 3.23783 1.81 2.42837 -3.54
3044 1 3.23783 5.43 2.42837 -3.54
3045 1 3.23783 9.05 2.42837 -3.54
3046 1 3.23783 12.67 2.42837 -3.54
3047 1 3.23783 16.29 2.42837 -3.54
3048 1 3.23783 19.91 2.42837 -3.54
3049 1 11.3324 1.81 2.42837 -3.54
3050 1 11.3324 5.43 2.42837 -3.54
3051 1 11.3324 9.05 2.42837 -3.54
3052 1 11.3324 12.67 2.42837 -3.54
3053 1 11.3324 16.29 2.42837 -3.54
3054 1 11.3324 19.91 2.42837 -3.54
3121 1 3.23783 1.81 10.5229 -3.54
3122 1 3.23783 5.43 10.5229 -3.54
3123 1 3.23783 9.05 10.5229 -3.54
3124 1 3.23783 12.67 10.5229 -3.54
3125 1 3.23783 16.29 10.5229 -3.54
3126 1 3.23783 19.91 10.5229 -3.54
3127 1 11.3324 1.81 10.5229 -3.54
3128 1 11.3324 5.43 10.5229 -3.54
3129 1 11.3324 9.05 10.5229 -3.54
3130 1 11.3324 12.67 10.5229 -3.54
3131 1 11.3324 16.29 10.5229 -3.54
3132 1 11.3324 19.91 10.5229 -3.54
3199 1 3.23783 1.81 18.6175 -3.54
3200 1 3.23783 5.43 18.6175 -3.54
3201 1 3.23783 9.05 18.6175 -3.54
3202 1 3.23783 12.67 18.6175 -3.54
3203 1 3.23783 16.29 18.6175 -3.54
3204 1 3.23783 19.91 18.6175 -3.54
3205 1 11.3324 1.81 18.6175 -3.54
3206 1 11.3324 5.43 18.6175 -3.54
3207 1 11.3324 9.05 18.6175 -3.54
3208 1 11.3324 12.67 18.6175 -3.54
3209 1 11.3324 16.29 18.6175 -3.54
3210 1 11.3324 19.91 18.6175 -3.54
3277 1 2.42837 1e-16 0.809457 -3.54051
3278 1 2.42837 3.62 0.809457 -3.54051
3279 1 2.42837 7.24 0.809457 -3.54051
3280 1 2.42837 10.86 0.809457 -3.54051
3281 1 2.42837 14.48 0.809457 -3.54051
3282 1 2.42837 18.1 0.809457 -3.54051
3283 1 10.5229 1e-16 0.809457 -3.54
3284 1 10.5229 3.62 0.809457 -3.54
3285 1 10.5229 7.24 0.809457 -3.54
3286 1 10.5229 10.86 0.809457 -3.54
3287 1 10.5229 14.48 0.809457 -3.54
3288 1 10.5229 18.1 0.809457 -3.54
3355 1 2.42837 7e-16 8.90402 -3.54051
3356 1 2.42837 3.62 8.90402 -3.54051
3357 1 2.42837 7.24 8.90402 -3.54051
3358 1 2.42837 10.86 8.90402 -3.54051
3359 1 2.42837 14.48 8.90402 -3.54051
3360 1 2.42837 18.1 8.90402 -3.54051
3361 1 10.5229 7e-16 8.90402 -3.54
3362 1 10.5229 3.62 8.90402 -3.54
3363 1 10.5229 7.24 8.90402 -3.54
3364 1 10.5229 10.86 8.90402 -3.54
3365 1 10.5229 14.48 8.90402 -3.54
3366 1 10.5229 18.1 8.90402 -3.54
3433 1 2.42837 1.4e-15 16.9986 -3.54051
3434 1 2.42837 3.62 16.9986 -3.54051
3435 1 2.42837 7.24 16.9986 -3.54051
3436 1 2.42837 10.86 16.9986 -3.54051
3437 1 2.42837 14.48 16.9986 -3.54051
3438 1 2.42837 18.1 16.9986 -3.54051
3439 1 10.5229 1.4e-15 16.9986 -3.54
3440 1 10.5229 3.62 16.9986 -3.54
3441 1 10.5229 7.24 16.9986 -3.54
3442 1 10.5229 10.86 16.9986 -3.54
3443 1 10.5229 14.48 16.9986 -3.54
3444 1 10.5229 18.1 16.9986 -3.54
3511 1 5.6662 1.81 3.23783 -3.54
3512 1 5.6662 5.43 3.23783 -3.54
3513 1 5.6662 9.05 3.23783 -3.54
3514 1 5.6662 12.67 3.23783 -3.54
3515 1 5.6662 16.29 3.23783 -3.54
3516 1 5.6662 19.91 3.23783 -3.54
3517 1 13.7608 1.81 3.23783 -3.54
3518 1 13.7608 5.43 3.23783 -3.54
3519 1 13.7608 9.05 3.23783 -3.54
3520 1 13.7608 12.67 3.23783 -3.54
3521 1 13.7608 16.29 3.23783 -3.54
3522 1 13.7608 19.91 3.23783 -3.54
3589 1 5.6662 1.81 11.3324 -3.54
3590 1 5.6662 5.43 11.3324 -3.54
3591 1 5.6662 9.05 11.3324 -3.54
3592 1 5.6662 12.67 11.3324 -3.54
3593 1 5.6662 16.29 11.3324 -3.54
3594 1 5.6662 19.91 11.3324 -3.54
3595 1 13.7608 1.81 11.3324 -3.54
3596 1 13.7608 5.43 11.3324 -3.54
3597 1 13.7608 9.05 11.3324 -3.54
3598 1 13.7608 12.67 11.3324 -3.54
3599 1 13.7608 16.29 11.3324 -3.54
3600 1 13.7608 19.91 11.3324 -3.54
3667 1 5.6662 1.81 19.427 -3.54
3668 1 5.6662 5.43 19.427 -3.54
3669 1 5.6662 9.05 19.427 -3.54
3670 1 5.6662 12.67 19.427 -3.54
3671 1 5.6662 16.29 19.427 -3.54
3672 1 5.6662 19.91 19.427 -3.54
3673 1 13.7608 1.81 19.427 -3.54
3674 1 13.7608 5.43 19.427 -3.54
3675 1 13.7608 9.05 19.427 -3.54
3676 1 13.7608 12.67 19.427 -3.54
3677 1 13.7608 16.29 19.427 -3.54
3678 1 13.7608 19.91 19.427 -3.54
3745 1 4.85674 1e-16 1.61891 -3.54
3746 1 4.85674 3.62 1.61891 -3.54
3747 1 4.85674 7.24 1.61891 -3.54
3748 1 4.85674 10.86 1.61891 -3.54
3749 1 4.85674 14.48 1.61891 -3.54
3750 1 4.85674 18.1 1.61891 -3.54
3751 1 12.9513 1e-16 1.61891 -3.54
3752 1 12.9513 3.62 1.61891 -3.54
3753 1 12.9513 7.24 1.61891 -3.54
3754 1 12.9513 10.86 1.61891 -3.54
3755 1 12.9513 14.48 1.61891 -3.54
3756 1 12.9513 18.1 1.61891 -3.54
3823 1 4.85674 8e-16 9.71348 -3.54
3824 1 4.85674 3.62 9.71348 -3.54
3825 1 4.85674 7.24 9.71348 -3.54
3826 1 4.85674 10.86 9.71348 -3.54
3827 1 4.85674 14.48 9.71348 -3.54
3828 1 4.85674 18.1 9.71348 -3.54
3829 1 12.9513 8e-16 9.71348 -3.54
3830 1 12.9513 3.62 9.71348 -3.54
3831 1 12.9513 7.24 9.71348 -3.54
3832 1 12.9513 10.86 9.71348 -3.54
3833 1 12.9513 14.48 9.71348 -3.54
3834 1 12.9513 18.1 9.71348 -3.54
3901 1 4.85674 1.4e-15 17.808 -3.54
3902 1 4.85674 3.62 17.808 -3.54
3903 1 4.85674 7.24 17.808 -3.54
3904 1 4.85674 10.86 17.808 -3.54
3905 1 4.85674 14.48 17.808 -3.54
3906 1 4.85674 18.1 17.808 -3.54
3907 1 12.9513 1.4e-15 17.808 -3.54
3908 1 12.9513 3.62 17.808 -3.54
3909 1 12.9513 7.24 17.808 -3.54
3910 1 12.9513 10.86 17.808 -3.54
3911 1 12.9513 14.48 17.808 -3.54
3912 1 12.9513 18.1 17.808 -3.54
3979 1 7.28511 2e-16 2.42837 -3.54
3980 1 7.28511 3.62 2.42837 -3.54
3981 1 7.28511 7.24 2.42837 -3.54
3982 1 7.28511 10.86 2.42837 -3.54
3983 1 7.28511 14.48 2.42837 -3.54
3984 1 7.28511 18.1 2.42837 -3.54
3985 1 15.3797 2e-16 2.42837 -3.54
3986 1 15.3797 3.62 2.42837 -3.54
3987 1 15.3797 7.24 2.42837 -3.54
3988 1 15.3797 10.86 2.42837 -3.54
3989 1 15.3797 14.48 2.42837 -3.54
3990 1 15.3797 18.1 2.42837 -3.54
4057 1 7.28511 8e-16 10.5229 -3.54
4058 1 7.28511 3.62 10.5229 -3.54
4059 1 7.28511 7.24 10.5229 -3.54
4060 1 7.28511 10.86 10.5229 -3.54
4061 1 7.28511 14.48 10.5229 -3.54
4062 1 7.28511 18.1 10.5229 -3.54
4063 1 15.3797 8e-16 10.5229 -3.54
4064 1 15.3797 3.62 10.5229 -3.54
4065 1 15.3797 7.24 10.5229 -3.54
4066 1 15.3797 10.86 10.5229 -3.54
4067 1 15.3797 14.48 10.5229 -3.54
4068 1 15.3797 18.1 10.5229 -3.54
4135 1 7.28511 1.5e-15 18.6175 -3.54
4136 1 7.28511 3.62 18.6175 -3.54
4137 1 7.28511 7.24 18.6175 -3.54
4138 1 7.28511 10.86 18.6175 -3.54
4139 1 7.28511 14.48 18.6175 -3.54
4140 1 7.28511 18.1 18.6175 -3.54
4141 1 15.3797 1.5e-15 18.6175 -3.54
4142 1 15.3797 3.62 18.6175 -3.54
4143 1 15.3797 7.24 18.6175 -3.54
4144 1 15.3797 10.86 18.6175 -3.54
4145 1 15.3797 14.48 18.6175 -3.54
4146 1 15.3797 18.1 18.6175 -3.54
4213 1 4.04728 1.81 0 -3.54
4214 1 4.04728 5.43 0 -3.54
4215 1 4.04728 9.05 0 -3.54
4216 1 4.04728 12.67 0 -3.54
4217 1 4.04728 16.29 0 -3.54
4218 1 4.04728 19.91 0 -3.54
4219 1 12.1418 1.81 0 -3.54
4220 1 12.1418 5.43 0 -3.54
4221 1 12.1418 9.05 0 -3.54
4222 1 12.1418 12.67 0 -3.54
4223 1 12.1418 16.29 0 -3.54
4224 1 12.1418 19.91 0 -3.54
4291 1 4.04728 1.81 8.09457 -3.54
4292 1 4.04728 5.43 8.09457 -3.54
4293 1 4.04728 9.05 8.09457 -3.54
4294 1 4.04728 12.67 8.09457 -3.54
4295 1 4.04728 16.29 8.09457 -3.54
4296 1 4.04728 19.91 8.09457 -3.54
4297 1 12.1418 1.81 8.09457 -3.54
4298 1 12.1418 5.43 8.09457 -3.54
4299 1 12.1418 9.05 8.09457 -3.54
4300 1 12.1418 12.67 8.09457 -3.54
4301 1 12.1418 16.29 8.09457 -3.54
4302 1 12.1418 19.91 8.09457 -3.54
4369 1 4.04728 1.81 16.1891 -3.54
4370 1 4.04728 5.43 16.1891 -3.54
4371 1 4.04728 9.05 16.1891 -3.54
4372 1 4.04728 12.67 16.1891 -3.54
4373 1 4.04728 16.29 16.1891 -3.54
4374 1 4.04728 19.91 16.1891 -3.54
4375 1 12.1418 1.81 16.1891 -3.54
4376 1 12.1418 5.43 16.1891 -3.54
4377 1 12.1418 9.05 16.1891 -3.54
4378 1 12.1418 12.67 16.1891 -3.54
4379 1 12.1418 16.29 16.1891 -3.54
4380 1 12.1418 19.91 16.1891 -3.54
4447 1 6.47565 1.81 0.809457 -3.54
4448 1 6.47565 5.43 0.809457 -3.54
4449 1 6.47565 9.05 0.809457 -3.54
4450 1 6.47565 12.67 0.809457 -3.54
4451 1 6.47565 16.29 0.809457 -3.54
4452 1 6.47565 19.91 0.809457 -3.54
4453 1 14.5702 1.81 0.809457 -3.54
4454 1 14.5702 5.43 0.809457 -3.54
4455 1 14.5702 9.05 0.809457 -3.54
4456 1 14.5702 12.67 0.809457 -3.54
4457 1 14.5702 16.29 0.809457 -3.54
4458 1 14.5702 19.91 0.809457 -3.54
4525 1 6.47565 1.81 8.90402 -3.54
4526 1 6.47565 5.43 8.90402 -3.54
4527 1 6.47565 9.05 8.90402 -3.54
4528 1 6.47565 12.67 8.90402 -3.54
4529 1 6.47565 16.29 8.90402 -3.54
4530 1 6.47565 19.91 8.90402 -3.54
4531 1 14.5702 1.81 8.90402 -3.54
4532 1 14.5702 5.43 8.90402 -3.54
4533 1 14.5702 9.05 8.90402 -3.54
4534 1 14.5702 12.67 8.90402 -3.54
4535 1 14.5702 16.29 8.90402 -3.54
4536 1 14.5702 19.91 8.90402 -3.54
4603 1 6.47565 1.81 16.9986 -3.54
4604 1 6.47565 5.43 16.9986 -3.54
4605 1 6.47565 9.05 16.9986 -3.54
4606 1 6.47565 12.67 16.9986 -3.54
4607 1 6.47565 16.29 16.9986 -3.54
4608 1 6.47565 19.91 16.9986 -3.54
4609 1 14.5702 1.81 16.9986 -3.54
4610 1 14.5702 5.43 16.9986 -3.54
4611 1 14.5702 9.05 16.9986 -3.54
4612 1 14.5702 12.67 16.9986 -3.54
4613 1 14.5702 16.29 16.9986 -3.54
4614 1 14.5702 19.91 16.9986 -3.54
13 1 17.808 1.81 7.28511 -3.54
14 1 17.808 5.43 7.28511 -3.54
15 1 17.808 9.05 7.28511 -3.54
16 1 17.808 12.67 7.28511 -3.54
17 1 17.808 16.29 7.28511 -3.54
18 1 17.808 19.91 7.28511 -3.54
19 1 25.9026 1.81 7.28511 -3.54
20 1 25.9026 5.43 7.28511 -3.54
21 1 25.9026 9.05 7.28511 -3.54
22 1 25.9026 12.67 7.28511 -3.54
23 1 25.9026 16.29 7.28511 -3.54
24 1 25.9026 19.91 7.28511 -3.54
25 1 33.9972 1.81 7.28511 -3.54
26 1 33.9972 5.43 7.28511 -3.54
27 1 33.9972 9.05 7.28511 -3.54
28 1 33.9972 12.67 7.28511 -3.54
29 1 33.9972 16.29 7.28511 -3.54
30 1 33.9972 19.91 7.28511 -3.54
91 1 17.808 1.81 15.3797 -3.54
92 1 17.808 5.43 15.3797 -3.54
93 1 17.808 9.05 15.3797 -3.54
94 1 17.808 12.67 15.3797 -3.54
95 1 17.808 16.29 15.3797 -3.54
96 1 17.808 19.91 15.3797 -3.54
97 1 25.9026 1.81 15.3797 -3.54
98 1 25.9026 5.43 15.3797 -3.54
99 1 25.9026 9.05 15.3797 -3.54
100 1 25.9026 12.67 15.3797 -3.54
101 1 25.9026 16.29 15.3797 -3.54
102 1 25.9026 19.91 15.3797 -3.54
103 1 33.9972 1.81 15.3797 -3.54
104 1 33.9972 5.43 15.3797 -3.54
105 1 33.9972 9.05 15.3797 -3.54
106 1 33.9972 12.67 15.3797 -3.54
107 1 33.9972 16.29 15.3797 -3.54
108 1 33.9972 19.91 15.3797 -3.54
169 1 17.808 1.81 23.4742 -3.54
170 1 17.808 5.43 23.4742 -3.54
171 1 17.808 9.05 23.4742 -3.54
172 1 17.808 12.67 23.4742 -3.54
173 1 17.808 16.29 23.4742 -3.54
174 1 17.808 19.91 23.4742 -3.54
175 1 25.9026 1.81 23.4742 -3.54
176 1 25.9026 5.43 23.4742 -3.54
177 1 25.9026 9.05 23.4742 -3.54
178 1 25.9026 12.67 23.4742 -3.54
179 1 25.9026 16.29 23.4742 -3.54
180 1 25.9026 19.91 23.4742 -3.54
181 1 33.9972 1.81 23.4742 -3.54
182 1 33.9972 5.43 23.4742 -3.54
183 1 33.9972 9.05 23.4742 -3.54
184 1 33.9972 12.67 23.4742 -3.54
185 1 33.9972 16.29 23.4742 -3.54
186 1 33.9972 19.91 23.4742 -3.54
253 1 25.0932 5e-16 5.6662 -3.54
254 1 25.0932 3.62 5.6662 -3.54
255 1 25.0932 7.24 5.6662 -3.54
256 1 25.0932 10.86 5.6662 -3.54
257 1 25.0932 14.48 5.6662 -3.54
258 1 25.0932 18.1 5.6662 -3.54
259 1 33.1877 5e-16 5.6662 -3.54
260 1 33.1877 3.62 5.6662 -3.54
261 1 33.1877 7.24 5.6662 -3.54
262 1 33.1877 10.86 5.6662 -3.54
263 1 33.1877 14.48 5.6662 -3.54