#LAMMPS input file of atoms generated by interface_master. The elements are: 1 Cu 
 11424 atoms 
 
1 atom types 
 
0.00000000 208.95899282 xlo xhi 
0.00000000 21.71999997 ylo yhi 
0.00000000 29.85128469 zlo zhi 

-0.00000000 0.00000000 0.00000000 xy xz yz 

Atoms 
 
1 1 13.1696844213036233 1.8099999975028764 14.4866528634339886
2 1 13.1696844213036233 5.4299999925086260 14.4866528634339886
3 1 13.1696844213036233 9.0499999875143757 14.4866528634339886
4 1 13.1696844213036233 12.6699999825201264 14.4866528634339886
5 1 13.1696844213036233 16.2899999775258770 14.4866528634339886
6 1 13.1696844213036233 19.9099999725316259 14.4866528634339886
7 1 28.0953267654477372 1.8099999975028764 14.4866528634339886
8 1 28.0953267654477372 5.4299999925086260 14.4866528634339886
9 1 28.0953267654477372 9.0499999875143757 14.4866528634339886
10 1 28.0953267654477372 12.6699999825201264 14.4866528634339886
11 1 28.0953267654477372 16.2899999775258770 14.4866528634339886
12 1 28.0953267654477372 19.9099999725316259 14.4866528634339886
13 1 43.0209691095918458 1.8099999975028764 14.4866528634339886
14 1 43.0209691095918458 5.4299999925086260 14.4866528634339886
15 1 43.0209691095918458 9.0499999875143757 14.4866528634339886
16 1 43.0209691095918458 12.6699999825201264 14.4866528634339886
17 1 43.0209691095918458 16.2899999775258770 14.4866528634339886
18 1 43.0209691095918458 19.9099999725316259 14.4866528634339886
19 1 57.9466114537359616 1.8099999975028764 14.4866528634339886
20 1 57.9466114537359616 5.4299999925086260 14.4866528634339886
21 1 57.9466114537359616 9.0499999875143757 14.4866528634339886
22 1 57.9466114537359616 12.6699999825201264 14.4866528634339886
23 1 57.9466114537359616 16.2899999775258770 14.4866528634339886
24 1 57.9466114537359616 19.9099999725316259 14.4866528634339886
25 1 72.8722537978800631 1.8099999975028764 14.4866528634339886
26 1 72.8722537978800631 5.4299999925086260 14.4866528634339886
27 1 72.8722537978800631 9.0499999875143757 14.4866528634339886
28 1 72.8722537978800631 12.6699999825201264 14.4866528634339886
29 1 72.8722537978800631 16.2899999775258770 14.4866528634339886
30 1 72.8722537978800631 19.9099999725316259 14.4866528634339886
31 1 87.7978961420241717 1.8099999975028764 14.4866528634339886
32 1 87.7978961420241717 5.4299999925086260 14.4866528634339886
33 1 87.7978961420241717 9.0499999875143757 14.4866528634339886
34 1 87.7978961420241717 12.6699999825201264 14.4866528634339886
35 1 87.7978961420241717 16.2899999775258770 14.4866528634339886
36 1 87.7978961420241717 19.9099999725316259 14.4866528634339886
37 1 102.7235384861682803 1.8099999975028764 14.4866528634339886
38 1 102.7235384861682803 5.4299999925086260 14.4866528634339886
39 1 102.7235384861682803 9.0499999875143757 14.4866528634339886
40 1 102.7235384861682803 12.6699999825201264 14.4866528634339886
41 1 102.7235384861682803 16.2899999775258770 14.4866528634339886
42 1 102.7235384861682803 19.9099999725316259 14.4866528634339886
43 1 13.1696844213036233 1.8099999975028784 29.4122952075780972
44 1 13.1696844213036233 5.4299999925086277 29.4122952075780972
45 1 13.1696844213036233 9.0499999875143775 29.4122952075780972
46 1 13.1696844213036233 12.6699999825201282 29.4122952075780972
47 1 13.1696844213036233 16.2899999775258770 29.4122952075780972
48 1 13.1696844213036233 19.9099999725316259 29.4122952075780972
49 1 28.0953267654477372 1.8099999975028784 29.4122952075780972
50 1 28.0953267654477372 5.4299999925086277 29.4122952075780972
51 1 28.0953267654477372 9.0499999875143775 29.4122952075780972
52 1 28.0953267654477372 12.6699999825201282 29.4122952075780972
53 1 28.0953267654477372 16.2899999775258770 29.4122952075780972
54 1 28.0953267654477372 19.9099999725316259 29.4122952075780972
55 1 43.0209691095918458 1.8099999975028784 29.4122952075780972
56 1 43.0209691095918458 5.4299999925086277 29.4122952075780972
57 1 43.0209691095918458 9.0499999875143775 29.4122952075780972
58 1 43.0209691095918458 12.6699999825201282 29.4122952075780972
59 1 43.0209691095918458 16.2899999775258770 29.4122952075780972
60 1 43.0209691095918458 19.9099999725316259 29.4122952075780972
61 1 57.9466114537359616 1.8099999975028784 29.4122952075780972
62 1 57.9466114537359616 5.4299999925086277 29.4122952075780972
63 1 57.9466114537359616 9.0499999875143775 29.4122952075780972
64 1 57.9466114537359616 12.6699999825201282 29.4122952075780972
65 1 57.9466114537359616 16.2899999775258770 29.4122952075780972
66 1 57.9466114537359616 19.9099999725316259 29.4122952075780972
67 1 72.8722537978800631 1.8099999975028784 29.4122952075780972
68 1 72.8722537978800631 5.4299999925086277 29.4122952075780972
69 1 72.8722537978800631 9.0499999875143775 29.4122952075780972
70 1 72.8722537978800631 12.6699999825201282 29.4122952075780972
71 1 72.8722537978800631 16.2899999775258770 29.4122952075780972
72 1 72.8722537978800631 19.9099999725316259 29.4122952075780972
73 1 87.7978961420241717 1.8099999975028784 29.4122952075780972
74 1 87.7978961420241717 5.4299999925086277 29.4122952075780972
75 1 87.7978961420241717 9.0499999875143775 29.4122952075780972
76 1 87.7978961420241717 12.6699999825201282 29.4122952075780972
77 1 87.7978961420241717 16.2899999775258770 29.4122952075780972
78 1 87.7978961420241717 19.9099999725316259 29.4122952075780972
79 1 102.7235384861682803 1.8099999975028784 29.4122952075780972
80 1 102.7235384861682803 5.4299999925086277 29.4122952075780972
81 1 102.7235384861682803 9.0499999875143775 29.4122952075780972
82 1 102.7235384861682803 12.6699999825201282 29.4122952075780972
83 1 102.7235384861682803 16.2899999775258770 29.4122952075780972
84 1 102.7235384861682803 19.9099999725316259 29.4122952075780972
85 1 11.4137264984631415 0.0000000000000018 14.0476633827238668
86 1 11.4137264984631415 3.6199999950057511 14.0476633827238668
87 1 11.4137264984631415 7.2399999900115004 14.0476633827238668
88 1 11.4137264984631415 10.8599999850172502 14.0476633827238668
89 1 11.4137264984631415 14.4799999800229990 14.0476633827238668
90 1 11.4137264984631415 18.0999999750287515 14.0476633827238668
91 1 26.3393688426072536 0.0000000000000018 14.0476633827238668
92 1 26.3393688426072536 3.6199999950057511 14.0476633827238668
93 1 26.3393688426072536 7.2399999900115004 14.0476633827238668
94 1 26.3393688426072536 10.8599999850172502 14.0476633827238668
95 1 26.3393688426072536 14.4799999800229990 14.0476633827238668
96 1 26.3393688426072536 18.0999999750287515 14.0476633827238668
97 1 41.2650111867513658 0.0000000000000018 14.0476633827238668
98 1 41.2650111867513658 3.6199999950057511 14.0476633827238668
99 1 41.2650111867513658 7.2399999900115004 14.0476633827238668
100 1 41.2650111867513658 10.8599999850172502 14.0476633827238668
101 1 41.2650111867513658 14.4799999800229990 14.0476633827238668
102 1 41.2650111867513658 18.0999999750287515 14.0476633827238668
103 1 56.1906535308954744 0.0000000000000018 14.0476633827238668
104 1 56.1906535308954744 3.6199999950057511 14.0476633827238668
105 1 56.1906535308954744 7.2399999900115004 14.0476633827238668
106 1 56.1906535308954744 10.8599999850172502 14.0476633827238668
107 1 56.1906535308954744 14.4799999800229990 14.0476633827238668
108 1 56.1906535308954744 18.0999999750287515 14.0476633827238668
109 1 71.1162958750395831 0.0000000000000018 14.0476633827238668
110 1 71.1162958750395831 3.6199999950057511 14.0476633827238668
111 1 71.1162958750395831 7.2399999900115004 14.0476633827238668
112 1 71.1162958750395831 10.8599999850172502 14.0476633827238668
113 1 71.1162958750395831 14.4799999800229990 14.0476633827238668
114 1 71.1162958750395831 18.0999999750287515 14.0476633827238668
115 1 86.0419382191836917 0.0000000000000018 14.0476633827238668
116 1 86.0419382191836917 3.6199999950057511 14.0476633827238668
117 1 86.0419382191836917 7.2399999900115004 14.0476633827238668
118 1 86.0419382191836917 10.8599999850172502 14.0476633827238668
119 1 86.0419382191836917 14.4799999800229990 14.0476633827238668
120 1 86.0419382191836917 18.0999999750287515 14.0476633827238668
121 1 100.9675805633278145 0.0000000000000018 14.0476633827238668
122 1 100.9675805633278145 3.6199999950057511 14.0476633827238668
123 1 100.9675805633278145 7.2399999900115004 14.0476633827238668
124 1 100.9675805633278145 10.8599999850172502 14.0476633827238668
125 1 100.9675805633278145 14.4799999800229990 14.0476633827238668
126 1 100.9675805633278145 18.0999999750287515 14.0476633827238668
127 1 11.4137264984631415 0.0000000000000037 28.9733057268679772
128 1 11.4137264984631415 3.6199999950057529 28.9733057268679772
129 1 11.4137264984631415 7.2399999900115022 28.9733057268679772
130 1 11.4137264984631415 10.8599999850172519 28.9733057268679772
131 1 11.4137264984631415 14.4799999800230008 28.9733057268679772
132 1 11.4137264984631415 18.0999999750287515 28.9733057268679772
133 1 26.3393688426072536 0.0000000000000037 28.9733057268679772
134 1 26.3393688426072536 3.6199999950057529 28.9733057268679772
135 1 26.3393688426072536 7.2399999900115022 28.9733057268679772
136 1 26.3393688426072536 10.8599999850172519 28.9733057268679772
137 1 26.3393688426072536 14.4799999800230008 28.9733057268679772
138 1 26.3393688426072536 18.0999999750287515 28.9733057268679772
139 1 41.2650111867513658 0.0000000000000037 28.9733057268679772
140 1 41.2650111867513658 3.6199999950057529 28.9733057268679772
141 1 41.2650111867513658 7.2399999900115022 28.9733057268679772
142 1 41.2650111867513658 10.8599999850172519 28.9733057268679772
143 1 41.2650111867513658 14.4799999800230008 28.9733057268679772
144 1 41.2650111867513658 18.0999999750287515 28.9733057268679772
145 1 56.1906535308954744 0.0000000000000037 28.9733057268679772
146 1 56.1906535308954744 3.6199999950057529 28.9733057268679772
147 1 56.1906535308954744 7.2399999900115022 28.9733057268679772
148 1 56.1906535308954744 10.8599999850172519 28.9733057268679772
149 1 56.1906535308954744 14.4799999800230008 28.9733057268679772
150 1 56.1906535308954744 18.0999999750287515 28.9733057268679772
151 1 71.1162958750395831 0.0000000000000037 28.9733057268679772
152 1 71.1162958750395831 3.6199999950057529 28.9733057268679772
153 1 71.1162958750395831 7.2399999900115022 28.9733057268679772
154 1 71.1162958750395831 10.8599999850172519 28.9733057268679772
155 1 71.1162958750395831 14.4799999800230008 28.9733057268679772
156 1 71.1162958750395831 18.0999999750287515 28.9733057268679772
157 1 86.0419382191836917 0.0000000000000037 28.9733057268679772
158 1 86.0419382191836917 3.6199999950057529 28.9733057268679772
159 1 86.0419382191836917 7.2399999900115022 28.9733057268679772
160 1 86.0419382191836917 10.8599999850172519 28.9733057268679772
161 1 86.0419382191836917 14.4799999800230008 28.9733057268679772
162 1 86.0419382191836917 18.0999999750287515 28.9733057268679772
163 1 100.9675805633278145 0.0000000000000037 28.9733057268679772
164 1 100.9675805633278145 3.6199999950057529 28.9733057268679772
165 1 100.9675805633278145 7.2399999900115022 28.9733057268679772
166 1 100.9675805633278145 10.8599999850172519 28.9733057268679772
167 1 100.9675805633278145 14.4799999800230008 28.9733057268679772
168 1 100.9675805633278145 18.0999999750287515 28.9733057268679772
169 1 13.6086739020137468 0.0000000000000016 12.7306949405935033
170 1 13.6086739020137468 3.6199999950057511 12.7306949405935033
171 1 13.6086739020137468 7.2399999900115004 12.7306949405935033
172 1 13.6086739020137468 10.8599999850172502 12.7306949405935033
173 1 13.6086739020137468 14.4799999800229990 12.7306949405935033
174 1 13.6086739020137468 18.0999999750287479 12.7306949405935033
175 1 28.5343162461578572 0.0000000000000016 12.7306949405935033
176 1 28.5343162461578572 3.6199999950057511 12.7306949405935033
177 1 28.5343162461578572 7.2399999900115004 12.7306949405935033
178 1 28.5343162461578572 10.8599999850172502 12.7306949405935033
179 1 28.5343162461578572 14.4799999800229990 12.7306949405935033
180 1 28.5343162461578572 18.0999999750287479 12.7306949405935033
181 1 43.4599585903019658 0.0000000000000016 12.7306949405935033
182 1 43.4599585903019658 3.6199999950057511 12.7306949405935033
183 1 43.4599585903019658 7.2399999900115004 12.7306949405935033
184 1 43.4599585903019658 10.8599999850172502 12.7306949405935033
185 1 43.4599585903019658 14.4799999800229990 12.7306949405935033
186 1 43.4599585903019658 18.0999999750287479 12.7306949405935033
187 1 58.3856009344460816 0.0000000000000016 12.7306949405935033
188 1 58.3856009344460816 3.6199999950057511 12.7306949405935033
189 1 58.3856009344460816 7.2399999900115004 12.7306949405935033
190 1 58.3856009344460816 10.8599999850172502 12.7306949405935033
191 1 58.3856009344460816 14.4799999800229990 12.7306949405935033
192 1 58.3856009344460816 18.0999999750287479 12.7306949405935033
193 1 73.3112432785901973 0.0000000000000016 12.7306949405935033
194 1 73.3112432785901973 3.6199999950057511 12.7306949405935033
195 1 73.3112432785901973 7.2399999900115004 12.7306949405935033
196 1 73.3112432785901973 10.8599999850172502 12.7306949405935033
197 1 73.3112432785901973 14.4799999800229990 12.7306949405935033
198 1 73.3112432785901973 18.0999999750287479 12.7306949405935033
199 1 88.2368856227343059 0.0000000000000016 12.7306949405935033
200 1 88.2368856227343059 3.6199999950057511 12.7306949405935033
201 1 88.2368856227343059 7.2399999900115004 12.7306949405935033
202 1 88.2368856227343059 10.8599999850172502 12.7306949405935033
203 1 88.2368856227343059 14.4799999800229990 12.7306949405935033
204 1 88.2368856227343059 18.0999999750287479 12.7306949405935033
205 1 103.1625279668784145 0.0000000000000016 12.7306949405935050
206 1 103.1625279668784145 3.6199999950057511 12.7306949405935050
207 1 103.1625279668784145 7.2399999900115004 12.7306949405935050
208 1 103.1625279668784145 10.8599999850172502 12.7306949405935050
209 1 103.1625279668784145 14.4799999800229990 12.7306949405935050
210 1 103.1625279668784145 18.0999999750287479 12.7306949405935050
211 1 13.6086739020137468 0.0000000000000035 27.6563372847376137
212 1 13.6086739020137468 3.6199999950057529 27.6563372847376137
213 1 13.6086739020137468 7.2399999900115022 27.6563372847376137
214 1 13.6086739020137468 10.8599999850172519 27.6563372847376137
215 1 13.6086739020137468 14.4799999800230008 27.6563372847376137
216 1 13.6086739020137468 18.0999999750287515 27.6563372847376137
217 1 28.5343162461578572 0.0000000000000035 27.6563372847376137
218 1 28.5343162461578572 3.6199999950057529 27.6563372847376137
219 1 28.5343162461578572 7.2399999900115022 27.6563372847376137
220 1 28.5343162461578572 10.8599999850172519 27.6563372847376137
221 1 28.5343162461578572 14.4799999800230008 27.6563372847376137
222 1 28.5343162461578572 18.0999999750287515 27.6563372847376137
223 1 43.4599585903019658 0.0000000000000035 27.6563372847376137
224 1 43.4599585903019658 3.6199999950057529 27.6563372847376137
225 1 43.4599585903019658 7.2399999900115022 27.6563372847376137
226 1 43.4599585903019658 10.8599999850172519 27.6563372847376137
227 1 43.4599585903019658 14.4799999800230008 27.6563372847376137
228 1 43.4599585903019658 18.0999999750287515 27.6563372847376137
229 1 58.3856009344460816 0.0000000000000035 27.6563372847376137
230 1 58.3856009344460816 3.6199999950057529 27.6563372847376137
231 1 58.3856009344460816 7.2399999900115022 27.6563372847376137
232 1 58.3856009344460816 10.8599999850172519 27.6563372847376137
233 1 58.3856009344460816 14.4799999800230008 27.6563372847376137
234 1 58.3856009344460816 18.0999999750287515 27.6563372847376137
235 1 73.3112432785901973 0.0000000000000035 27.6563372847376137
236 1 73.3112432785901973 3.6199999950057529 27.6563372847376137
237 1 73.3112432785901973 7.2399999900115022 27.6563372847376137
238 1 73.3112432785901973 10.8599999850172519 27.6563372847376137
239 1 73.3112432785901973 14.4799999800230008 27.6563372847376137
240 1 73.3112432785901973 18.0999999750287515 27.6563372847376137
241 1 88.2368856227343059 0.0000000000000035 27.6563372847376137
242 1 88.2368856227343059 3.6199999950057529 27.6563372847376137
243 1 88.2368856227343059 7.2399999900115022 27.6563372847376137
244 1 88.2368856227343059 10.8599999850172519 27.6563372847376137
245 1 88.2368856227343059 14.4799999800230008 27.6563372847376137
246 1 88.2368856227343059 18.0999999750287515 27.6563372847376137
247 1 103.1625279668784145 0.0000000000000035 27.6563372847376137
248 1 103.1625279668784145 3.6199999950057529 27.6563372847376137
249 1 103.1625279668784145 7.2399999900115022 27.6563372847376137
250 1 103.1625279668784145 10.8599999850172519 27.6563372847376137
251 1 103.1625279668784145 14.4799999800230008 27.6563372847376137
252 1 103.1625279668784145 18.0999999750287515 27.6563372847376137
253 1 5.7068632492315707 0.0000000000000018 14.4866528634339886
254 1 5.7068632492315707 3.6199999950057511 14.4866528634339886
255 1 5.7068632492315707 7.2399999900115004 14.4866528634339886
256 1 5.7068632492315707 10.8599999850172502 14.4866528634339886
257 1 5.7068632492315698 14.4799999800229990 14.4866528634339886
258 1 5.7068632492315698 18.0999999750287515 14.4866528634339886
259 1 20.6325055933756829 0.0000000000000018 14.4866528634339886
260 1 20.6325055933756829 3.6199999950057511 14.4866528634339886
261 1 20.6325055933756829 7.2399999900115004 14.4866528634339886
262 1 20.6325055933756829 10.8599999850172502 14.4866528634339886
263 1 20.6325055933756829 14.4799999800229990 14.4866528634339886
264 1 20.6325055933756829 18.0999999750287515 14.4866528634339886
265 1 35.5581479375197915 0.0000000000000018 14.4866528634339886
266 1 35.5581479375197915 3.6199999950057511 14.4866528634339886
267 1 35.5581479375197915 7.2399999900115004 14.4866528634339886
268 1 35.5581479375197915 10.8599999850172502 14.4866528634339886
269 1 35.5581479375197915 14.4799999800229990 14.4866528634339886
270 1 35.5581479375197915 18.0999999750287515 14.4866528634339886
271 1 50.4837902816639073 0.0000000000000018 14.4866528634339886
272 1 50.4837902816639073 3.6199999950057511 14.4866528634339886
273 1 50.4837902816639073 7.2399999900115004 14.4866528634339886
274 1 50.4837902816639073 10.8599999850172502 14.4866528634339886
275 1 50.4837902816639073 14.4799999800229990 14.4866528634339886
276 1 50.4837902816639073 18.0999999750287515 14.4866528634339886
277 1 65.4094326258080230 0.0000000000000018 14.4866528634339886
278 1 65.4094326258080230 3.6199999950057511 14.4866528634339886
279 1 65.4094326258080230 7.2399999900115004 14.4866528634339886
280 1 65.4094326258080230 10.8599999850172502 14.4866528634339886
281 1 65.4094326258080230 14.4799999800229990 14.4866528634339886
282 1 65.4094326258080230 18.0999999750287515 14.4866528634339886
283 1 80.3350749699521316 0.0000000000000018 14.4866528634339886
284 1 80.3350749699521316 3.6199999950057511 14.4866528634339886
285 1 80.3350749699521316 7.2399999900115004 14.4866528634339886
286 1 80.3350749699521316 10.8599999850172502 14.4866528634339886
287 1 80.3350749699521316 14.4799999800229990 14.4866528634339886
288 1 80.3350749699521316 18.0999999750287515 14.4866528634339886
289 1 95.2607173140962402 0.0000000000000018 14.4866528634339886
290 1 95.2607173140962402 3.6199999950057511 14.4866528634339886
291 1 95.2607173140962402 7.2399999900115004 14.4866528634339886
292 1 95.2607173140962402 10.8599999850172502 14.4866528634339886
293 1 95.2607173140962402 14.4799999800229990 14.4866528634339886
294 1 95.2607173140962402 18.0999999750287515 14.4866528634339886
295 1 5.7068632492315716 0.0000000000000037 29.4122952075780972
296 1 5.7068632492315716 3.6199999950057529 29.4122952075780972
297 1 5.7068632492315716 7.2399999900115022 29.4122952075780972
298 1 5.7068632492315716 10.8599999850172519 29.4122952075780972
299 1 5.7068632492315707 14.4799999800230008 29.4122952075780972
300 1 5.7068632492315707 18.0999999750287515 29.4122952075780972
301 1 20.6325055933756829 0.0000000000000037 29.4122952075780972
302 1 20.6325055933756829 3.6199999950057529 29.4122952075780972
303 1 20.6325055933756829 7.2399999900115022 29.4122952075780972
304 1 20.6325055933756829 10.8599999850172519 29.4122952075780972
305 1 20.6325055933756829 14.4799999800230008 29.4122952075780972
306 1 20.6325055933756829 18.0999999750287515 29.4122952075780972
307 1 35.5581479375197915 0.0000000000000037 29.4122952075780972
308 1 35.5581479375197915 3.6199999950057529 29.4122952075780972
309 1 35.5581479375197915 7.2399999900115022 29.4122952075780972
310 1 35.5581479375197915 10.8599999850172519 29.4122952075780972
311 1 35.5581479375197915 14.4799999800230008 29.4122952075780972
312 1 35.5581479375197915 18.0999999750287515 29.4122952075780972
313 1 50.4837902816639073 0.0000000000000037 29.4122952075780972
314 1 50.4837902816639073 3.6199999950057529 29.4122952075780972
315 1 50.4837902816639073 7.2399999900115022 29.4122952075780972
316 1 50.4837902816639073 10.8599999850172519 29.4122952075780972
317 1 50.4837902816639073 14.4799999800230008 29.4122952075780972
318 1 50.4837902816639073 18.0999999750287515 29.4122952075780972
319 1 65.4094326258080230 0.0000000000000037 29.4122952075780972
320 1 65.4094326258080230 3.6199999950057529 29.4122952075780972
321 1 65.4094326258080230 7.2399999900115022 29.4122952075780972
322 1 65.4094326258080230 10.8599999850172519 29.4122952075780972
323 1 65.4094326258080230 14.4799999800230008 29.4122952075780972
324 1 65.4094326258080230 18.0999999750287515 29.4122952075780972
325 1 80.3350749699521316 0.0000000000000037 29.4122952075780972
326 1 80.3350749699521316 3.6199999950057529 29.4122952075780972
327 1 80.3350749699521316 7.2399999900115022 29.4122952075780972
328 1 80.3350749699521316 10.8599999850172519 29.4122952075780972
329 1 80.3350749699521316 14.4799999800230008 29.4122952075780972
330 1 80.3350749699521316 18.0999999750287515 29.4122952075780972
331 1 95.2607173140962402 0.0000000000000037 29.4122952075780972
332 1 95.2607173140962402 3.6199999950057529 29.4122952075780972
333 1 95.2607173140962402 7.2399999900115022 29.4122952075780972
334 1 95.2607173140962402 10.8599999850172519 29.4122952075780972
335 1 95.2607173140962402 14.4799999800230008 29.4122952075780972
336 1 95.2607173140962402 18.0999999750287515 29.4122952075780972
337 1 9.6577685756226597 1.8099999975028764 13.6086739020137450
338 1 9.6577685756226597 5.4299999925086260 13.6086739020137450
339 1 9.6577685756226597 9.0499999875143757 13.6086739020137450
340 1 9.6577685756226597 12.6699999825201264 13.6086739020137450
341 1 9.6577685756226597 16.2899999775258735 13.6086739020137450
342 1 9.6577685756226597 19.9099999725316223 13.6086739020137450
343 1 24.5834109197667701 1.8099999975028764 13.6086739020137450
344 1 24.5834109197667701 5.4299999925086260 13.6086739020137450
345 1 24.5834109197667701 9.0499999875143757 13.6086739020137450
346 1 24.5834109197667701 12.6699999825201264 13.6086739020137450
347 1 24.5834109197667701 16.2899999775258735 13.6086739020137450
348 1 24.5834109197667701 19.9099999725316223 13.6086739020137450
349 1 39.5090532639108787 1.8099999975028764 13.6086739020137450
350 1 39.5090532639108787 5.4299999925086260 13.6086739020137450
351 1 39.5090532639108787 9.0499999875143757 13.6086739020137450
352 1 39.5090532639108787 12.6699999825201264 13.6086739020137450
353 1 39.5090532639108787 16.2899999775258735 13.6086739020137450
354 1 39.5090532639108787 19.9099999725316223 13.6086739020137450
355 1 54.4346956080549944 1.8099999975028764 13.6086739020137468
356 1 54.4346956080549944 5.4299999925086260 13.6086739020137468
357 1 54.4346956080549944 9.0499999875143757 13.6086739020137468
358 1 54.4346956080549944 12.6699999825201264 13.6086739020137468
359 1 54.4346956080549944 16.2899999775258735 13.6086739020137468
360 1 54.4346956080549944 19.9099999725316223 13.6086739020137468
361 1 69.3603379521991030 1.8099999975028764 13.6086739020137468
362 1 69.3603379521991030 5.4299999925086260 13.6086739020137468
363 1 69.3603379521991030 9.0499999875143757 13.6086739020137468
364 1 69.3603379521991030 12.6699999825201264 13.6086739020137468
365 1 69.3603379521991030 16.2899999775258735 13.6086739020137468
366 1 69.3603379521991030 19.9099999725316223 13.6086739020137468
367 1 84.2859802963431974 1.8099999975028764 13.6086739020137468
368 1 84.2859802963431974 5.4299999925086260 13.6086739020137468
369 1 84.2859802963431974 9.0499999875143757 13.6086739020137468
370 1 84.2859802963431974 12.6699999825201264 13.6086739020137468
371 1 84.2859802963431974 16.2899999775258735 13.6086739020137468
372 1 84.2859802963431974 19.9099999725316223 13.6086739020137468
373 1 99.2116226404873203 1.8099999975028764 13.6086739020137468
374 1 99.2116226404873203 5.4299999925086260 13.6086739020137468
375 1 99.2116226404873203 9.0499999875143757 13.6086739020137468
376 1 99.2116226404873203 12.6699999825201264 13.6086739020137468
377 1 99.2116226404873203 16.2899999775258735 13.6086739020137468
378 1 99.2116226404873203 19.9099999725316223 13.6086739020137468
379 1 9.6577685756226597 1.8099999975028782 28.5343162461578572
380 1 9.6577685756226597 5.4299999925086277 28.5343162461578572
381 1 9.6577685756226597 9.0499999875143775 28.5343162461578572
382 1 9.6577685756226597 12.6699999825201282 28.5343162461578572
383 1 9.6577685756226597 16.2899999775258770 28.5343162461578572
384 1 9.6577685756226597 19.9099999725316259 28.5343162461578572
385 1 24.5834109197667701 1.8099999975028782 28.5343162461578572
386 1 24.5834109197667701 5.4299999925086277 28.5343162461578572
387 1 24.5834109197667701 9.0499999875143775 28.5343162461578572
388 1 24.5834109197667701 12.6699999825201282 28.5343162461578572
389 1 24.5834109197667701 16.2899999775258770 28.5343162461578572
390 1 24.5834109197667701 19.9099999725316259 28.5343162461578572
391 1 39.5090532639108787 1.8099999975028782 28.5343162461578572
392 1 39.5090532639108787 5.4299999925086277 28.5343162461578572
393 1 39.5090532639108787 9.0499999875143775 28.5343162461578572
394 1 39.5090532639108787 12.6699999825201282 28.5343162461578572
395 1 39.5090532639108787 16.2899999775258770 28.5343162461578572
396 1 39.5090532639108787 19.9099999725316259 28.5343162461578572
397 1 54.4346956080549944 1.8099999975028782 28.5343162461578572
398 1 54.4346956080549944 5.4299999925086277 28.5343162461578572
399 1 54.4346956080549944 9.0499999875143775 28.5343162461578572
400 1 54.4346956080549944 12.6699999825201282 28.5343162461578572
401 1 54.4346956080549944 16.2899999775258770 28.5343162461578572
402 1 54.4346956080549944 19.9099999725316259 28.5343162461578572
403 1 69.3603379521991030 1.8099999975028782 28.5343162461578572
404 1 69.3603379521991030 5.4299999925086277 28.5343162461578572
405 1 69.3603379521991030 9.0499999875143775 28.5343162461578572
406 1 69.3603379521991030 12.6699999825201282 28.5343162461578572
407 1 69.3603379521991030 16.2899999775258770 28.5343162461578572
408 1 69.3603379521991030 19.9099999725316259 28.5343162461578572
409 1 84.2859802963431974 1.8099999975028782 28.5343162461578572
410 1 84.2859802963431974 5.4299999925086277 28.5343162461578572
411 1 84.2859802963431974 9.0499999875143775 28.5343162461578572
412 1 84.2859802963431974 12.6699999825201282 28.5343162461578572
413 1 84.2859802963431974 16.2899999775258770 28.5343162461578572
414 1 84.2859802963431974 19.9099999725316259 28.5343162461578572
415 1 99.2116226404873203 1.8099999975028782 28.5343162461578572
416 1 99.2116226404873203 5.4299999925086277 28.5343162461578572
417 1 99.2116226404873203 9.0499999875143775 28.5343162461578572
418 1 99.2116226404873203 12.6699999825201282 28.5343162461578572
419 1 99.2116226404873203 16.2899999775258770 28.5343162461578572
420 1 99.2116226404873203 19.9099999725316259 28.5343162461578572
421 1 7.9018106527821743 0.0000000000000017 13.1696844213036250
422 1 7.9018106527821743 3.6199999950057511 13.1696844213036250
423 1 7.9018106527821743 7.2399999900115004 13.1696844213036250
424 1 7.9018106527821743 10.8599999850172502 13.1696844213036250
425 1 7.9018106527821734 14.4799999800229990 13.1696844213036250
426 1 7.9018106527821734 18.0999999750287479 13.1696844213036250
427 1 22.8274529969262829 0.0000000000000017 13.1696844213036250
428 1 22.8274529969262829 3.6199999950057511 13.1696844213036250
429 1 22.8274529969262829 7.2399999900115004 13.1696844213036250
430 1 22.8274529969262829 10.8599999850172502 13.1696844213036250
431 1 22.8274529969262829 14.4799999800229990 13.1696844213036250
432 1 22.8274529969262829 18.0999999750287479 13.1696844213036250
433 1 37.7530953410703987 0.0000000000000017 13.1696844213036250
434 1 37.7530953410703987 3.6199999950057511 13.1696844213036250
435 1 37.7530953410703987 7.2399999900115004 13.1696844213036250
436 1 37.7530953410703987 10.8599999850172502 13.1696844213036250
437 1 37.7530953410703987 14.4799999800229990 13.1696844213036250
438 1 37.7530953410703987 18.0999999750287479 13.1696844213036250
439 1 52.6787376852145073 0.0000000000000017 13.1696844213036250
440 1 52.6787376852145073 3.6199999950057511 13.1696844213036250
441 1 52.6787376852145073 7.2399999900115004 13.1696844213036250
442 1 52.6787376852145073 10.8599999850172502 13.1696844213036250
443 1 52.6787376852145073 14.4799999800229990 13.1696844213036250
444 1 52.6787376852145073 18.0999999750287479 13.1696844213036250
445 1 67.6043800293586230 0.0000000000000017 13.1696844213036250
446 1 67.6043800293586230 3.6199999950057511 13.1696844213036250
447 1 67.6043800293586230 7.2399999900115004 13.1696844213036250
448 1 67.6043800293586230 10.8599999850172502 13.1696844213036250