LAMMPS (29 Oct 2020)
Reading data file ...
  triclinic box = (0.0000000 0.0000000 0.0000000) to (208.95899 21.720000 29.851285) with tilt (-0.0000000 0.0000000 0.0000000)
  12 by 1 by 1 MPI processor grid
  reading atoms ...
  11424 atoms
  read_data CPU = 0.012 seconds
4080 atoms in group fixbulk1
4056 atoms in group fixbulk2
2736 atoms in group middle
5688 atoms in group right
264 atoms in group bulk
Displacing atoms ...
Neighbor list info ...
  update every 1 steps, delay 10 steps, check yes
  max neighbors/atom: 2000, page size: 100000
  master list distance cutoff = 6
  ghost atom cutoff = 6
  binsize = 3, bins = 70 8 10
  2 neighbor lists, perpetual/occasional/extra = 2 0 0
  (1) pair meam, perpetual
      attributes: full, newton on
      pair build: full/bin/atomonly
      stencil: full/bin/3d
      bin: standard
  (2) pair meam, perpetual, half/full from (1)
      attributes: half, newton on
      pair build: halffull/newton
      stencil: none
      bin: none
Setting up Verlet run ...
  Unit style    : metal
  Current step  : 0
  Time step     : 0.001
Per MPI rank memory allocation (min/avg/max) = 11.61 | 11.73 | 11.76 Mbytes
Step Lx Ly Lz c_emiddle Temp c_hulk_dis_ave_x 
       0     208.5618        21.72    29.851285   -1718.5077            0 1.0335167e-14 
Loop time of 6.0002e-06 on 12 procs for 0 steps with 11424 atoms

36.1% CPU use with 12 MPI tasks x no OpenMP threads

MPI task timing breakdown:
Section |  min time  |  avg time  |  max time  |%varavg| %total
---------------------------------------------------------------
Pair    | 0          | 0          | 0          |   0.0 |  0.00
Neigh   | 0          | 0          | 0          |   0.0 |  0.00
Comm    | 0          | 0          | 0          |   0.0 |  0.00
Output  | 0          | 0          | 0          |   0.0 |  0.00
Modify  | 0          | 0          | 0          |   0.0 |  0.00
Other   |            | 6e-06      |            |       |100.00

Nlocal:        952.000 ave         960 max         936 min
Histogram: 4 0 0 0 0 0 0 0 0 8
Nghost:        2482.25 ave        2627 max        1909 min
Histogram: 2 0 0 0 0 0 0 0 2 8
Neighs:        36720.0 ave       37440 max       35256 min
Histogram: 2 0 0 0 0 4 0 0 1 5
FullNghs:      73440.0 ave       74880 max       70080 min
Histogram: 2 0 0 0 0 0 4 0 0 6

Total # of neighbors = 881280
Ave neighs/atom = 77.142857
Neighbor list builds = 0
Dangerous builds = 0
1 1 0 0 -0 196869.691424595 1.03351670656015e-14
Reading data file ...
  triclinic box = (0.0000000 0.0000000 0.0000000) to (208.95899 21.720000 29.851285) with tilt (-0.0000000 0.0000000 0.0000000)
  12 by 1 by 1 MPI processor grid
  reading atoms ...
  11424 atoms
  read_data CPU = 0.008 seconds
4080 atoms in group fixbulk1
4056 atoms in group fixbulk2
2736 atoms in group middle
5688 atoms in group right
264 atoms in group bulk
Displacing atoms ...
Neighbor list info ...
  update every 1 steps, delay 10 steps, check yes
  max neighbors/atom: 2000, page size: 100000
  master list distance cutoff = 6
  ghost atom cutoff = 6
  binsize = 3, bins = 70 8 10
  2 neighbor lists, perpetual/occasional/extra = 2 0 0
  (1) pair meam, perpetual
      attributes: full, newton on
      pair build: full/bin/atomonly
      stencil: full/bin/3d
      bin: standard
  (2) pair meam, perpetual, half/full from (1)
      attributes: half, newton on
      pair build: halffull/newton
      stencil: none
      bin: none
Setting up Verlet run ...
  Unit style    : metal
  Current step  : 0
  Time step     : 0.001
Per MPI rank memory allocation (min/avg/max) = 11.61 | 11.72 | 11.76 Mbytes
Step Lx Ly Lz c_emiddle Temp c_hulk_dis_ave_x 
       0     208.5618        21.72    29.851285    -2380.873            0 1.0335167e-14 
Loop time of 7.21216e-06 on 12 procs for 0 steps with 11424 atoms

102.8% CPU use with 12 MPI tasks x no OpenMP threads

MPI task timing breakdown:
Section |  min time  |  avg time  |  max time  |%varavg| %total
---------------------------------------------------------------
Pair    | 0          | 0          | 0          |   0.0 |  0.00
Neigh   | 0          | 0          | 0          |   0.0 |  0.00
Comm    | 0          | 0          | 0          |   0.0 |  0.00
Output  | 0          | 0          | 0          |   0.0 |  0.00
Modify  | 0          | 0          | 0          |   0.0 |  0.00
Other   |            | 7.212e-06  |            |       |100.00

Nlocal:        952.000 ave         960 max         936 min
Histogram: 4 0 0 0 0 0 0 0 0 8
Nghost:        2500.42 ave        2664 max        1909 min
Histogram: 2 0 0 0 0 0 0 0 2 8
Neighs:        36718.0 ave       37440 max       35256 min
Histogram: 2 0 0 0 0 4 0 0 1 5
FullNghs:      73436.0 ave       74880 max       70080 min
Histogram: 2 0 0 0 0 0 4 0 0 6

Total # of neighbors = 881232
Ave neighs/atom = 77.138655
Neighbor list builds = 0
Dangerous builds = 0
1 2 0 -0.0464102563462275 -0.191354389027489 180502.080843842 1.03351670656015e-14
Reading data file ...
  triclinic box = (0.0000000 0.0000000 0.0000000) to (208.95899 21.720000 29.851285) with tilt (-0.0000000 0.0000000 0.0000000)
  12 by 1 by 1 MPI processor grid
  reading atoms ...
  11424 atoms
  read_data CPU = 0.009 seconds
4080 atoms in group fixbulk1
4056 atoms in group fixbulk2
2736 atoms in group middle
5688 atoms in group right
264 atoms in group bulk
Displacing atoms ...
Neighbor list info ...
  update every 1 steps, delay 10 steps, check yes
  max neighbors/atom: 2000, page size: 100000
  master list distance cutoff = 6
  ghost atom cutoff = 6
  binsize = 3, bins = 70 8 10
  2 neighbor lists, perpetual/occasional/extra = 2 0 0
  (1) pair meam, perpetual
      attributes: full, newton on
      pair build: full/bin/atomonly
      stencil: full/bin/3d
      bin: standard
  (2) pair meam, perpetual, half/full from (1)
      attributes: half, newton on
      pair build: halffull/newton
      stencil: none
      bin: none
Setting up Verlet run ...
  Unit style    : metal
  Current step  : 0
  Time step     : 0.001
Per MPI rank memory allocation (min/avg/max) = 11.61 | 11.72 | 11.76 Mbytes
Step Lx Ly Lz c_emiddle Temp c_hulk_dis_ave_x 
       0     208.5618        21.72    29.851285   -3978.0258            0 1.0335167e-14 
Loop time of 6.71546e-06 on 12 procs for 0 steps with 11424 atoms

57.1% CPU use with 12 MPI tasks x no OpenMP threads

MPI task timing breakdown:
Section |  min time  |  avg time  |  max time  |%varavg| %total
---------------------------------------------------------------
Pair    | 0          | 0          | 0          |   0.0 |  0.00
Neigh   | 0          | 0          | 0          |   0.0 |  0.00
Comm    | 0          | 0          | 0          |   0.0 |  0.00
Output  | 0          | 0          | 0          |   0.0 |  0.00
Modify  | 0          | 0          | 0          |   0.0 |  0.00
Other   |            | 6.715e-06  |            |       |100.00

Nlocal:        952.000 ave         960 max         936 min
Histogram: 4 0 0 0 0 0 0 0 0 8
Nghost:        2481.42 ave        2627 max        1909 min
Histogram: 2 0 0 0 0 0 0 0 2 8
Neighs:        36726.0 ave       37440 max       35256 min
Histogram: 2 0 0 0 0 4 0 0 1 5
FullNghs:      73452.0 ave       74880 max       70080 min
Histogram: 2 0 0 0 0 0 4 0 0 6

Total # of neighbors = 881424
Ave neighs/atom = 77.155462
Neighbor list builds = 0
Dangerous builds = 0
1 3 0 -0.092820512692455 -0.382708778054978 141035.071682418 1.03351670656015e-14
Reading data file ...
  triclinic box = (0.0000000 0.0000000 0.0000000) to (208.95899 21.720000 29.851285) with tilt (-0.0000000 0.0000000 0.0000000)
  12 by 1 by 1 MPI processor grid
  reading atoms ...
  11424 atoms
  read_data CPU = 0.008 seconds
4080 atoms in group fixbulk1
4056 atoms in group fixbulk2
2736 atoms in group middle
5688 atoms in group right
264 atoms in group bulk
Displacing atoms ...
Neighbor list info ...
  update every 1 steps, delay 10 steps, check yes
  max neighbors/atom: 2000, page size: 100000
  master list distance cutoff = 6
  ghost atom cutoff = 6
  binsize = 3, bins = 70 8 10
  2 neighbor lists, perpetual/occasional/extra = 2 0 0
  (1) pair meam, perpetual
      attributes: full, newton on
      pair build: full/bin/atomonly
      stencil: full/bin/3d
      bin: standard
  (2) pair meam, perpetual, half/full from (1)
      attributes: half, newton on
      pair build: halffull/newton
      stencil: none
      bin: none
Setting up Verlet run ...
  Unit style    : metal
  Current step  : 0
  Time step     : 0.001
Per MPI rank memory allocation (min/avg/max) = 11.61 | 11.72 | 11.76 Mbytes
Step Lx Ly Lz c_emiddle Temp c_hulk_dis_ave_x 
       0     208.5618        21.72    29.851285   -5735.6346            0 1.0335167e-14 
Loop time of 6.77506e-06 on 12 procs for 0 steps with 11424 atoms

62.7% CPU use with 12 MPI tasks x no OpenMP threads

MPI task timing breakdown:
Section |  min time  |  avg time  |  max time  |%varavg| %total
---------------------------------------------------------------
Pair    | 0          | 0          | 0          |   0.0 |  0.00
Neigh   | 0          | 0          | 0          |   0.0 |  0.00
Comm    | 0          | 0          | 0          |   0.0 |  0.00
Output  | 0          | 0          | 0          |   0.0 |  0.00
Modify  | 0          | 0          | 0          |   0.0 |  0.00
Other   |            | 6.775e-06  |            |       |100.00

Nlocal:        952.000 ave         960 max         936 min
Histogram: 4 0 0 0 0 0 0 0 0 8
Nghost:        2481.42 ave        2627 max        1909 min
Histogram: 2 0 0 0 0 0 0 0 2 8
Neighs:        36724.0 ave       37440 max       35256 min
Histogram: 2 0 0 0 0 4 0 0 1 5
FullNghs:      73448.0 ave       74880 max       70080 min
Histogram: 2 0 0 0 0 0 4 0 0 6

Total # of neighbors = 881376
Ave neighs/atom = 77.151261
Neighbor list builds = 0
Dangerous builds = 0
1 4 0 -0.139230769038683 -0.574063167082467 97603.0592603623 1.03351670656015e-14
Reading data file ...
  triclinic box = (0.0000000 0.0000000 0.0000000) to (208.95899 21.720000 29.851285) with tilt (-0.0000000 0.0000000 0.0000000)
  12 by 1 by 1 MPI processor grid
  reading atoms ...
  11424 atoms
  read_data CPU = 0.010 seconds
4080 atoms in group fixbulk1
4056 atoms in group fixbulk2
2736 atoms in group middle
5688 atoms in group right
264 atoms in group bulk
Displacing atoms ...
Neighbor list info ...
  update every 1 steps, delay 10 steps, check yes
  max neighbors/atom: 2000, page size: 100000
  master list distance cutoff = 6
  ghost atom cutoff = 6
  binsize = 3, bins = 70 8 10
  2 neighbor lists, perpetual/occasional/extra = 2 0 0
  (1) pair meam, perpetual
      attributes: full, newton on
      pair build: full/bin/atomonly
      stencil: full/bin/3d
      bin: standard
  (2) pair meam, perpetual, half/full from (1)
      attributes: half, newton on
      pair build: halffull/newton
      stencil: none
      bin: none
Setting up Verlet run ...
  Unit style    : metal
  Current step  : 0
  Time step     : 0.001
Per MPI rank memory allocation (min/avg/max) = 11.61 | 11.72 | 11.76 Mbytes
Step Lx Ly Lz c_emiddle Temp c_hulk_dis_ave_x 
       0     208.5618        21.72    29.851285   -7339.5635            0 1.0335167e-14 
Loop time of 5.34455e-06 on 12 procs for 0 steps with 11424 atoms

73.3% CPU use with 12 MPI tasks x no OpenMP threads

MPI task timing breakdown:
Section |  min time  |  avg time  |  max time  |%varavg| %total
---------------------------------------------------------------
Pair    | 0          | 0          | 0          |   0.0 |  0.00
Neigh   | 0          | 0          | 0          |   0.0 |  0.00
Comm    | 0          | 0          | 0          |   0.0 |  0.00
Output  | 0          | 0          | 0          |   0.0 |  0.00
Modify  | 0          | 0          | 0          |   0.0 |  0.00
Other   |            | 5.345e-06  |            |       |100.00

Nlocal:        952.000 ave         960 max         936 min
Histogram: 4 0 0 0 0 0 0 0 0 8
Nghost:        2480.75 ave        2627 max        1909 min
Histogram: 2 0 0 0 0 0 0 0 2 8
Neighs:        36712.0 ave       37440 max       35256 min
Histogram: 2 0 0 0 0 4 0 0 2 4
FullNghs:      73424.0 ave       74880 max       70080 min
Histogram: 2 0 0 0 0 0 4 0 0 6

Total # of neighbors = 881088
Ave neighs/atom = 77.126050
Neighbor list builds = 0
Dangerous builds = 0
1 5 0 -0.18564102538491 -0.765417556109956 57968.6091937816 1.03351670656015e-14
Reading data file ...
  triclinic box = (0.0000000 0.0000000 0.0000000) to (208.95899 21.720000 29.851285) with tilt (-0.0000000 0.0000000 0.0000000)
  12 by 1 by 1 MPI processor grid
  reading atoms ...
  11424 atoms
  read_data CPU = 0.008 seconds
4080 atoms in group fixbulk1
4056 atoms in group fixbulk2
2736 atoms in group middle
5688 atoms in group right
264 atoms in group bulk
Displacing atoms ...
Neighbor list info ...
  update every 1 steps, delay 10 steps, check yes
  max neighbors/atom: 2000, page size: 100000
  master list distance cutoff = 6
  ghost atom cutoff = 6
  binsize = 3, bins = 70 8 10
  2 neighbor lists, perpetual/occasional/extra = 2 0 0
  (1) pair meam, perpetual
      attributes: full, newton on
      pair build: full/bin/atomonly
      stencil: full/bin/3d
      bin: standard
  (2) pair meam, perpetual, half/full from (1)
      attributes: half, newton on
      pair build: halffull/newton
      stencil: none
      bin: none
Setting up Verlet run ...
  Unit style    : metal
  Current step  : 0
  Time step     : 0.001
Per MPI rank memory allocation (min/avg/max) = 11.61 | 11.72 | 11.76 Mbytes
Step Lx Ly Lz c_emiddle Temp c_hulk_dis_ave_x 
       0     208.5618        21.72    29.851285   -8553.5013            0 1.0335167e-14 
Loop time of 6.21875e-06 on 12 procs for 0 steps with 11424 atoms

71.0% CPU use with 12 MPI tasks x no OpenMP threads

MPI task timing breakdown:
Section |  min time  |  avg time  |  max time  |%varavg| %total
---------------------------------------------------------------
Pair    | 0          | 0          | 0          |   0.0 |  0.00
Neigh   | 0          | 0          | 0          |   0.0 |  0.00
Comm    | 0          | 0          | 0          |   0.0 |  0.00
Output  | 0          | 0          | 0          |   0.0 |  0.00
Modify  | 0          | 0          | 0          |   0.0 |  0.00
Other   |            | 6.219e-06  |            |       |100.00

Nlocal:        952.000 ave         960 max         936 min
Histogram: 4 0 0 0 0 0 0 0 0 8
Nghost:        2480.75 ave        2627 max        1909 min
Histogram: 2 0 0 0 0 0 0 0 2 8
Neighs:        36716.0 ave       37440 max       35256 min
Histogram: 2 0 0 0 0 4 0 0 1 5
FullNghs:      73432.0 ave       74880 max       70080 min
Histogram: 2 0 0 0 0 0 4 0 0 6

Total # of neighbors = 881184
Ave neighs/atom = 77.134454
Neighbor list builds = 0
Dangerous builds = 0
1 6 0 -0.232051281731138 -0.956771945137445 27971.1700046137 1.03351670656015e-14
Reading data file ...
  triclinic box = (0.0000000 0.0000000 0.0000000) to (208.95899 21.720000 29.851285) with tilt (-0.0000000 0.0000000 0.0000000)
  12 by 1 by 1 MPI processor grid
  reading atoms ...
  11424 atoms
  read_data CPU = 0.008 seconds
4080 atoms in group fixbulk1
4056 atoms in group fixbulk2
2736 atoms in group middle
5688 atoms in group right
264 atoms in group bulk
Displacing atoms ...
Neighbor list info ...
  update every 1 steps, delay 10 steps, check yes
  max neighbors/atom: 2000, page size: 100000
  master list distance cutoff = 6
  ghost atom cutoff = 6
  binsize = 3, bins = 70 8 10
  2 neighbor lists, perpetual/occasional/extra = 2 0 0
  (1) pair meam, perpetual
      attributes: full, newton on
      pair build: full/bin/atomonly
      stencil: full/bin/3d
      bin: standard
  (2) pair meam, perpetual, half/full from (1)
      attributes: half, newton on
      pair build: halffull/newton
      stencil: none
      bin: none
Setting up Verlet run ...
  Unit style    : metal
  Current step  : 0
  Time step     : 0.001
Per MPI rank memory allocation (min/avg/max) = 11.61 | 11.72 | 11.76 Mbytes
Step Lx Ly Lz c_emiddle Temp c_hulk_dis_ave_x 
       0     208.5618        21.72    29.851285    -9140.451            0 1.0335167e-14 
Loop time of 5.14587e-06 on 12 procs for 0 steps with 11424 atoms

118.2% CPU use with 12 MPI tasks x no OpenMP threads

MPI task timing breakdown:
Section |  min time  |  avg time  |  max time  |%varavg| %total
---------------------------------------------------------------
Pair    | 0          | 0          | 0          |   0.0 |  0.00
Neigh   | 0          | 0          | 0          |   0.0 |  0.00
Comm    | 0          | 0          | 0          |   0.0 |  0.00
Output  | 0          | 0          | 0          |   0.0 |  0.00
Modify  | 0          | 0          | 0          |   0.0 |  0.00
Other   |            | 5.146e-06  |            |       |100.00

Nlocal:        952.000 ave         960 max         936 min
Histogram: 4 0 0 0 0 0 0 0 0 8
Nghost:        2498.92 ave        2655 max        1909 min
Histogram: 2 0 0 0 0 0 0 0 1 9
Neighs:        36712.0 ave       37440 max       35256 min
Histogram: 2 0 0 0 0 4 0 0 2 4
FullNghs:      73424.0 ave       74880 max       70080 min
Histogram: 2 0 0 0 0 0 4 0 0 6

Total # of neighbors = 881088
Ave neighs/atom = 77.126050
Neighbor list builds = 0
Dangerous builds = 0
1 7 0 -0.278461538077365 -1.14812633416493 13467.1432480198 1.03351670656015e-14
Reading data file ...
  triclinic box = (0.0000000 0.0000000 0.0000000) to (208.95899 21.720000 29.851285) with tilt (-0.0000000 0.0000000 0.0000000)
  12 by 1 by 1 MPI processor grid
  reading atoms ...
  11424 atoms
  read_data CPU = 0.008 seconds
4080 atoms in group fixbulk1
4056 atoms in group fixbulk2
2736 atoms in group middle
5688 atoms in group right
264 atoms in group bulk
Displacing atoms ...
Neighbor list info ...
  update every 1 steps, delay 10 steps, check yes
  max neighbors/atom: 2000, page size: 100000
  master list distance cutoff = 6
  ghost atom cutoff = 6
  binsize = 3, bins = 70 8 10
  2 neighbor lists, perpetual/occasional/extra = 2 0 0
  (1) pair meam, perpetual
      attributes: full, newton on
      pair build: full/bin/atomonly
      stencil: full/bin/3d
      bin: standard
  (2) pair meam, perpetual, half/full from (1)
      attributes: half, newton on
      pair build: halffull/newton
      stencil: none
      bin: none
Setting up Verlet run ...
  Unit style    : metal
  Current step  : 0
  Time step     : 0.001
Per MPI rank memory allocation (min/avg/max) = 11.61 | 11.72 | 11.76 Mbytes
Step Lx Ly Lz c_emiddle Temp c_hulk_dis_ave_x 
       0     208.5618        21.72    29.851285   -9305.9117            0 1.0335167e-14 
Loop time of 5.30481e-06 on 12 procs for 0 steps with 11424 atoms

0.0% CPU use with 12 MPI tasks x no OpenMP threads

MPI task timing breakdown:
Section |  min time  |  avg time  |  max time  |%varavg| %total
---------------------------------------------------------------
Pair    | 0          | 0          | 0          |   0.0 |  0.00
Neigh   | 0          | 0          | 0          |   0.0 |  0.00
Comm    | 0          | 0          | 0          |   0.0 |  0.00
Output  | 0          | 0          | 0          |   0.0 |  0.00
Modify  | 0          | 0          | 0          |   0.0 |  0.00
Other   |            | 5.305e-06  |            |       |100.00

Nlocal:        952.000 ave         960 max         936 min
Histogram: 4 0 0 0 0 0 0 0 0 8
Nghost:        2480.67 ave        2627 max        1909 min
Histogram: 2 0 0 0 0 0 0 0 2 8
Neighs:        36722.0 ave       37440 max       35256 min
Histogram: 2 0 0 0 0 4 0 0 1 5
FullNghs:      73444.0 ave       74880 max       70080 min
Histogram: 2 0 0 0 0 0 4 0 0 6

Total # of neighbors = 881328
Ave neighs/atom = 77.147059
Neighbor list builds = 0
Dangerous builds = 0
1 8 0 -0.324871794423592 -1.33948072319242 9378.46778083358 1.03351670656015e-14
Reading data file ...
  triclinic box = (0.0000000 0.0000000 0.0000000) to (208.95899 21.720000 29.851285) with tilt (-0.0000000 0.0000000 0.0000000)
  12 by 1 by 1 MPI processor grid
  reading atoms ...
  11424 atoms
  read_data CPU = 0.008 seconds
4080 atoms in group fixbulk1
4056 atoms in group fixbulk2
2736 atoms in group middle
5688 atoms in group right
264 atoms in group bulk
Displacing atoms ...
Neighbor list info ...
  update every 1 steps, delay 10 steps, check yes
  max neighbors/atom: 2000, page size: 100000
  master list distance cutoff = 6
  ghost atom cutoff = 6
  binsize = 3, bins = 70 8 10
  2 neighbor lists, perpetual/occasional/extra = 2 0 0
  (1) pair meam, perpetual
      attributes: full, newton on
      pair build: full/bin/atomonly
      stencil: full/bin/3d
      bin: standard
  (2) pair meam, perpetual, half/full from (1)
      attributes: half, newton on
      pair build: halffull/newton
      stencil: none
      bin: none
Setting up Verlet run ...
  Unit style    : metal
  Current step  : 0
  Time step     : 0.001
Per MPI rank memory allocation (min/avg/max) = 11.61 | 11.72 | 11.76 Mbytes
Step Lx Ly Lz c_emiddle Temp c_hulk_dis_ave_x 
       0     208.5618        21.72    29.851285   -9257.9595            0 1.0335167e-14 
Loop time of 6.27836e-06 on 12 procs for 0 steps with 11424 atoms

87.6% CPU use with 12 MPI tasks x no OpenMP threads

MPI task timing breakdown:
Section |  min time  |  avg time  |  max time  |%varavg| %total
---------------------------------------------------------------
Pair    | 0          | 0          | 0          |   0.0 |  0.00
Neigh   | 0          | 0          | 0          |   0.0 |  0.00
Comm    | 0          | 0          | 0          |   0.0 |  0.00
Output  | 0          | 0          | 0          |   0.0 |  0.00
Modify  | 0          | 0          | 0          |   0.0 |  0.00
Other   |            | 6.278e-06  |            |       |100.00

Nlocal:        952.000 ave         960 max         936 min
Histogram: 4 0 0 0 0 0 0 0 0 8
Nghost:        2498.00 ave        2655 max        1909 min
Histogram: 2 0 0 0 0 0 0 0 1 9
Neighs:        36720.0 ave       37440 max       35256 min
Histogram: 2 0 0 0 0 4 0 0 1 5
FullNghs:      73440.0 ave       74880 max       70080 min
Histogram: 2 0 0 0 0 0 4 0 0 6

Total # of neighbors = 881280
Ave neighs/atom = 77.142857
Neighbor list builds = 0
Dangerous builds = 0
1 9 0 -0.37128205076982 -1.53083511221991 10563.4080216505 1.03351670656015e-14
Reading data file ...
  triclinic box = (0.0000000 0.0000000 0.0000000) to (208.95899 21.720000 29.851285) with tilt (-0.0000000 0.0000000 0.0000000)
  12 by 1 by 1 MPI processor grid
  reading atoms ...
  11424 atoms
  read_data CPU = 0.009 seconds
4080 atoms in group fixbulk1
4056 atoms in group fixbulk2
2736 atoms in group middle
5688 atoms in group right
264 atoms in group bulk
Displacing atoms ...
Neighbor list info ...
  update every 1 steps, delay 10 steps, check yes
  max neighbors/atom: 2000, page size: 100000
  master list distance cutoff = 6
  ghost atom cutoff = 6
  binsize = 3, bins = 70 8 10
  2 neighbor lists, perpetual/occasional/extra = 2 0 0
  (1) pair meam, perpetual
      attributes: full, newton on
      pair build: full/bin/atomonly
      stencil: full/bin/3d
      bin: standard
  (2) pair meam, perpetual, half/full from (1)
      attributes: half, newton on
      pair build: halffull/newton
      stencil: none
      bin: none
Setting up Verlet run ...
  Unit style    : metal
  Current step  : 0
  Time step     : 0.001
Per MPI rank memory allocation (min/avg/max) = 11.61 | 11.72 | 11.76 Mbytes
Step Lx Ly Lz c_emiddle Temp c_hulk_dis_ave_x 
       0     208.5618        21.72    29.851285   -9131.9486            0 1.0335167e-14 
Loop time of 5.20547e-06 on 12 procs for 0 steps with 11424 atoms

89.6% CPU use with 12 MPI tasks x no OpenMP threads

MPI task timing breakdown:
Section |  min time  |  avg time  |  max time  |%varavg| %total
---------------------------------------------------------------
Pair    | 0          | 0          | 0          |   0.0 |  0.00
Neigh   | 0          | 0          | 0          |   0.0 |  0.00
Comm    | 0          | 0          | 0          |   0.0 |  0.00
Output  | 0          | 0          | 0          |   0.0 |  0.00
Modify  | 0          | 0          | 0          |   0.0 |  0.00
Other   |            | 5.205e-06  |            |       |100.00

Nlocal:        952.000 ave         960 max         936 min
Histogram: 4 0 0 0 0 0 0 0 0 8
Nghost:        2479.83 ave        2627 max        1909 min
Histogram: 2 0 0 0 0 0 0 0 2 8
Neighs:        36722.0 ave       37440 max       35256 min
Histogram: 2 0 0 0 0 4 0 1 0 5
FullNghs:      73444.0 ave       74880 max       70080 min
Histogram: 2 0 0 0 0 0 4 0 0 6

Total # of neighbors = 881328
Ave neighs/atom = 77.147059
Neighbor list builds = 0
Dangerous builds = 0
1 10 0 -0.417692307116048 -1.7221895012474 13677.2456883247 1.03351670656015e-14
Reading data file ...
  triclinic box = (0.0000000 0.0000000 0.0000000) to (208.95899 21.720000 29.851285) with tilt (-0.0000000 0.0000000 0.0000000)
  12 by 1 by 1 MPI processor grid
  reading atoms ...
  11424 atoms
  read_data CPU = 0.008 seconds
4080 atoms in group fixbulk1
4056 atoms in group fixbulk2
2736 atoms in group middle
5688 atoms in group right
264 atoms in group bulk
Displacing atoms ...
Neighbor list info ...
  update every 1 steps, delay 10 steps, check yes
  max neighbors/atom: 2000, page size: 100000
  master list distance cutoff = 6
  ghost atom cutoff = 6
  binsize = 3, bins = 70 8 10
  2 neighbor lists, perpetual/occasional/extra = 2 0 0
  (1) pair meam, perpetual
      attributes: full, newton on
      pair build: full/bin/atomonly
      stencil: full/bin/3d
      bin: standard
  (2) pair meam, perpetual, half/full from (1)
      attributes: half, newton on
      pair build: halffull/newton
      stencil: none
      bin: none
Setting up Verlet run ...
  Unit style    : metal
  Current step  : 0
  Time step     : 0.001
Per MPI rank memory allocation (min/avg/max) = 11.61 | 11.72 | 11.76 Mbytes
Step Lx Ly Lz c_emiddle Temp c_hulk_dis_ave_x 
       0     208.5618        21.72    29.851285   -9016.7573            0 1.0335167e-14 
Loop time of 5.28495e-06 on 12 procs for 0 steps with 11424 atoms

88.3% CPU use with 12 MPI tasks x no OpenMP threads

MPI task timing breakdown:
Section |  min time  |  avg time  |  max time  |%varavg| %total
---------------------------------------------------------------
Pair    | 0          | 0          | 0          |   0.0 |  0.00
Neigh   | 0          | 0          | 0          |   0.0 |  0.00
Comm    | 0          | 0          | 0          |   0.0 |  0.00
Output  | 0          | 0          | 0          |   0.0 |  0.00
Modify  | 0          | 0          | 0          |   0.0 |  0.00
Other   |            | 5.285e-06  |            |       |100.00

Nlocal:        952.000 ave         960 max         936 min
Histogram: 4 0 0 0 0 0 0 0 0 8
Nghost:        2497.33 ave        2655 max        1909 min
Histogram: 2 0 0 0 0 0 0 0 1 9
Neighs:        36718.0 ave       37440 max       35256 min
Histogram: 2 0 0 0 0 4 0 0 2 4
FullNghs:      73436.0 ave       74880 max       70080 min
Histogram: 2 0 0 0 0 0 4 0 0 6

Total # of neighbors = 881232
Ave neighs/atom = 77.138655
Neighbor list builds = 0
Dangerous builds = 0
1 11 0 -0.464102563462275 -1.91354389027489 16523.7198183541 1.03351670656015e-14
Reading data file ...
  triclinic box = (0.0000000 0.0000000 0.0000000) to (208.95899 21.720000 29.851285) with tilt (-0.0000000 0.0000000 0.0000000)
  12 by 1 by 1 MPI processor grid
  reading atoms ...
  11424 atoms
  read_data CPU = 0.008 seconds
4080 atoms in group fixbulk1
4056 atoms in group fixbulk2
2736 atoms in group middle
5688 atoms in group right
264 atoms in group bulk
Displacing atoms ...
Neighbor list info ...
  update every 1 steps, delay 10 steps, check yes
  max neighbors/atom: 2000, page size: 100000
  master list distance cutoff = 6
  ghost atom cutoff = 6
  binsize = 3, bins = 70 8 10
  2 neighbor lists, perpetual/occasional/extra = 2 0 0
  (1) pair meam, perpetual
      attributes: full, newton on
      pair build: full/bin/atomonly
      stencil: full/bin/3d
      bin: standard
  (2) pair meam, perpetual, half/full from (1)
      attributes: half, newton on
      pair build: halffull/newton
      stencil: none
      bin: none
Setting up Verlet run ...
  Unit style    : metal
  Current step  : 0
  Time step     : 0.001
Per MPI rank memory allocation (min/avg/max) = 11.61 | 11.72 | 11.76 Mbytes
Step Lx Ly Lz c_emiddle Temp c_hulk_dis_ave_x 
       0     208.5618        21.72    29.851285   -8955.6214            0 1.0335167e-14 
Loop time of 5.40415e-06 on 12 procs for 0 steps with 11424 atoms

117.2% CPU use with 12 MPI tasks x no OpenMP threads

MPI task timing breakdown:
Section |  min time  |  avg time  |  max time  |%varavg| %total
---------------------------------------------------------------
Pair    | 0          | 0          | 0          |   0.0 |  0.00
Neigh   | 0          | 0          | 0          |   0.0 |  0.00
Comm    | 0          | 0          | 0          |   0.0 |  0.00
Output  | 0          | 0          | 0          |   0.0 |  0.00
Modify  | 0          | 0          | 0          |   0.0 |  0.00
Other   |            | 5.404e-06  |            |       |100.00

Nlocal:        952.000 ave         960 max         936 min
Histogram: 4 0 0 0 0 0 0 0 0 8
Nghost:        2479.92 ave        2627 max        1909 min
Histogram: 2 0 0 0 0 0 0 0 2 8
Neighs:        36718.0 ave       37440 max       35256 min
Histogram: 2 0 0 0 0 4 0 0 2 4
FullNghs:      73436.0 ave       74880 max       70080 min
Histogram: 2 0 0 0 0 0 4 0 0 6

Total # of neighbors = 881232
Ave neighs/atom = 77.138655
Neighbor list builds = 0
Dangerous builds = 0
1 12 0 -0.510512819808502 -2.10489827930238 18034.4396087237 1.03351670656015e-14
Reading data file ...
  triclinic box = (0.0000000 0.0000000 0.0000000) to (208.95899 21.720000 29.851285) with tilt (-0.0000000 0.0000000 0.0000000)
  12 by 1 by 1 MPI processor grid
  reading atoms ...
  11424 atoms
  read_data CPU = 0.009 seconds
4080 atoms in group fixbulk1
4056 atoms in group fixbulk2
2736 atoms in group middle
5688 atoms in group right
264 atoms in group bulk
Displacing atoms ...
Neighbor list info ...
  update every 1 steps, delay 10 steps, check yes
  max neighbors/atom: 2000, page size: 100000
  master list distance cutoff = 6
  ghost atom cutoff = 6
  binsize = 3, bins = 70 8 10
  2 neighbor lists, perpetual/occasional/extra = 2 0 0
  (1) pair meam, perpetual
      attributes: full, newton on
      pair build: full/bin/atomonly
      stencil: full/bin/3d
      bin: standard
  (2) pair meam, perpetual, half/full from (1)
      attributes: half, newton on
      pair build: halffull/newton
      stencil: none
      bin: none
Setting up Verlet run ...
  Unit style    : metal
  Current step  : 0
  Time step     : 0.001
Per MPI rank memory allocation (min/avg/max) = 11.61 | 11.72 | 11.76 Mbytes
Step Lx Ly Lz c_emiddle Temp c_hulk_dis_ave_x 
       0     208.5618        21.72    29.851285   -8925.0895            0 1.0335167e-14 
Loop time of 5.80152e-06 on 12 procs for 0 steps with 11424 atoms

94.8% CPU use with 12 MPI tasks x no OpenMP threads

MPI task timing breakdown:
Section |  min time  |  avg time  |  max time  |%varavg| %total
---------------------------------------------------------------
Pair    | 0          | 0          | 0          |   0.0 |  0.00
Neigh   | 0          | 0          | 0          |   0.0 |  0.00
Comm    | 0          | 0          | 0          |   0.0 |  0.00
Output  | 0          | 0          | 0          |   0.0 |  0.00
Modify  | 0          | 0          | 0          |   0.0 |  0.00
Other   |            | 5.802e-06  |            |       |100.00

Nlocal:        952.000 ave         960 max         936 min
Histogram: 4 0 0 0 0 0 0 0 0 8
Nghost:        2479.92 ave        2627 max        1909 min
Histogram: 2 0 0 0 0 0 0 0 2 8
Neighs:        36712.0 ave       37440 max       35256 min
Histogram: 2 0 0 0 0 4 0 0 1 5
FullNghs:      73424.0 ave       74880 max       70080 min
Histogram: 2 0 0 0 0 0 4 0 0 6

Total # of neighbors = 881088
Ave neighs/atom = 77.126050
Neighbor list builds = 0
Dangerous builds = 0
1 13 0 -0.55692307615473 -2.29625266832987 18788.9081771138 1.03351670656015e-14
Reading data file ...
  triclinic box = (0.0000000 0.0000000 0.0000000) to (208.95899 21.720000 29.851285) with tilt (-0.0000000 0.0000000 0.0000000)
  12 by 1 by 1 MPI processor grid
  reading atoms ...
  11424 atoms
  read_data CPU = 0.008 seconds
4080 atoms in group fixbulk1
4056 atoms in group fixbulk2
2736 atoms in group middle
5688 atoms in group right
264 atoms in group bulk
Displacing atoms ...
Neighbor list info ...
  update every 1 steps, delay 10 steps, check yes
  max neighbors/atom: 2000, page size: 100000
  master list distance cutoff = 6
  ghost atom cutoff = 6
  binsize = 3, bins = 70 8 10
  2 neighbor lists, perpetual/occasional/extra = 2 0 0
  (1) pair meam, perpetual
      attributes: full, newton on
      pair build: full/bin/atomonly
      stencil: full/bin/3d
      bin: standard
  (2) pair meam, perpetual, half/full from (1)
      attributes: half, newton on
      pair build: halffull/newton
      stencil: none
      bin: none
Setting up Verlet run ...
  Unit style    : metal
  Current step  : 0
  Time step     : 0.001
Per MPI rank memory allocation (min/avg/max) = 11.59 | 11.71 | 11.76 Mbytes
Step Lx Ly Lz c_emiddle Temp c_hulk_dis_ave_x 
       0     208.5618        21.72    29.851285   -8838.4324            0 1.0335167e-14 
Loop time of 6.21875e-06 on 12 procs for 0 steps with 11424 atoms

87.1% CPU use with 12 MPI tasks x no OpenMP threads

MPI task timing breakdown:
Section |  min time  |  avg time  |  max time  |%varavg| %total
---------------------------------------------------------------
Pair    | 0          | 0          | 0          |   0.0 |  0.00
Neigh   | 0          | 0          | 0          |   0.0 |  0.00
Comm    | 0          | 0          | 0          |   0.0 |  0.00
Output  | 0          | 0          | 0          |   0.0 |  0.00
Modify  | 0          | 0          | 0          |   0.0 |  0.00
Other   |            | 6.219e-06  |            |       |100.00

Nlocal:        952.000 ave         960 max         936 min
Histogram: 4 0 0 0 0 0 0 0 0 8
Nghost:        2407.25 ave        2627 max        1785 min
Histogram: 1 1 0 0 0 0 0 2 4 4
Neighs:        36718.0 ave       37440 max       35256 min
Histogram: 2 0 0 0 0 4 0 0 2 4
FullNghs:      73436.0 ave       74880 max       70080 min
Histogram: 2 0 0 0 0 0 4 0 0 6

Total # of neighbors = 881232
Ave neighs/atom = 77.138655
Neighbor list builds = 0
Dangerous builds = 0
1 14 0 -0.603333332500958 -2.48760705735736 20930.2810407349 1.03351670656015e-14
Reading data file ...
  triclinic box = (0.0000000 0.0000000 0.0000000) to (208.95899 21.720000 29.851285) with tilt (-0.0000000 0.0000000 0.0000000)
  12 by 1 by 1 MPI processor grid
  reading atoms ...
  11424 atoms
  read_data CPU = 0.008 seconds
4080 atoms in group fixbulk1
4056 atoms in group fixbulk2
2736 atoms in group middle
5688 atoms in group right
264 atoms in group bulk
Displacing atoms ...
Neighbor list info ...
  update every 1 steps, delay 10 steps, check yes
  max neighbors/atom: 2000, page size: 100000
  master list distance cutoff = 6
  ghost atom cutoff = 6
  binsize = 3, bins = 70 8 10
  2 neighbor lists, perpetual/occasional/extra = 2 0 0
  (1) pair meam, perpetual
      attributes: full, newton on
      pair build: full/bin/atomonly
      stencil: full/bin/3d
      bin: standard
  (2) pair meam, perpetual, half/full from (1)
      attributes: half, newton on
      pair build: halffull/newton
      stencil: none
      bin: none
Setting up Verlet run ...
  Unit style    : metal
  Current step  : 0
  Time step     : 0.001
Per MPI rank memory allocation (min/avg/max) = 11.58 | 11.71 | 11.76 Mbytes
Step Lx Ly Lz c_emiddle Temp c_hulk_dis_ave_x 
       0     208.5618        21.72    29.851285   -8609.8918            0 1.0335167e-14 
Loop time of 5.58297e-06 on 12 procs for 0 steps with 11424 atoms

109.0% CPU use with 12 MPI tasks x no OpenMP threads

MPI task timing breakdown:
Section |  min time  |  avg time  |  max time  |%varavg| %total
---------------------------------------------------------------
Pair    | 0          | 0          | 0          |   0.0 |  0.00
Neigh   | 0          | 0          | 0          |   0.0 |  0.00
Comm    | 0          | 0          | 0          |   0.0 |  0.00
Output  | 0          | 0          | 0          |   0.0 |  0.00
Modify  | 0          | 0          | 0          |   0.0 |  0.00
Other   |            | 5.583e-06  |            |       |100.00

Nlocal:        952.000 ave         960 max         936 min
Histogram: 4 0 0 0 0 0 0 0 0 8
Nghost:        2390.00 ave        2627 max        1749 min
Histogram: 1 1 0 0 0 0 1 4 1 4
Neighs:        36722.0 ave       37440 max       35256 min
Histogram: 2 0 0 0 0 4 0 0 1 5
FullNghs:      73444.0 ave       74880 max       70080 min
Histogram: 2 0 0 0 0 0 4 0 0 6

Total # of neighbors = 881328
Ave neighs/atom = 77.147059
Neighbor list builds = 0
Dangerous builds = 0
1 15 0 -0.649743588847185 -2.67896144638485 26577.7122934714 1.03351670656015e-14
Reading data file ...
  triclinic box = (0.0000000 0.0000000 0.0000000) to (208.95899 21.720000 29.851285) with tilt (-0.0000000 0.0000000 0.0000000)
  12 by 1 by 1 MPI processor grid
  reading atoms ...
  11424 atoms
  read_data CPU = 0.008 seconds
4080 atoms in group fixbulk1
4056 atoms in group fixbulk2
2736 atoms in group middle
5688 atoms in group right
264 atoms in group bulk
Displacing atoms ...
Neighbor list info ...
  update every 1 steps, delay 10 steps, check yes
  max neighbors/atom: 2000, page size: 100000
  master list distance cutoff = 6
  ghost atom cutoff = 6
  binsize = 3, bins = 70 8 10
  2 neighbor lists, perpetual/occasional/extra = 2 0 0
  (1) pair meam, perpetual
      attributes: full, newton on
      pair build: full/bin/atomonly
      stencil: full/bin/3d
      bin: standard
  (2) pair meam, perpetual, half/full from (1)
      attributes: half, newton on
      pair build: halffull/newton
      stencil: none
      bin: none
Setting up Verlet run ...
  Unit style    : metal
  Current step  : 0
  Time step     : 0.001
Per MPI rank memory allocation (min/avg/max) = 11.58 | 11.71 | 11.76 Mbytes
Step Lx Ly Lz c_emiddle Temp c_hulk_dis_ave_x 
       0     208.5618        21.72    29.851285   -8237.0531            0 1.0335167e-14 
Loop time of 5.08626e-06 on 12 procs for 0 steps with 11424 atoms

41.0% CPU use with 12 MPI tasks x no OpenMP threads

MPI task timing breakdown:
Section |  min time  |  avg time  |  max time  |%varavg| %total
---------------------------------------------------------------
Pair    | 0          | 0          | 0          |   0.0 |  0.00
Neigh   | 0          | 0          | 0          |   0.0 |  0.00
Comm    | 0          | 0          | 0          |   0.0 |  0.00
Output  | 0          | 0          | 0          |   0.0 |  0.00
Modify  | 0          | 0          | 0          |   0.0 |  0.00
Other   |            | 5.086e-06  |            |       |100.00

Nlocal:        952.000 ave         960 max         936 min
Histogram: 4 0 0 0 0 0 0 0 0 8
Nghost:        2407.25 ave        2627 max        1776 min
Histogram: 1 1 0 0 0 0 0 2 4 4
Neighs:        36720.0 ave       37440 max       35256 min
Histogram: 2 0 0 0 0 4 0 0 1 5
FullNghs:      73440.0 ave       74880 max       70080 min
Histogram: 2 0 0 0 0 0 4 0 0 6

Total # of neighbors = 881280
Ave neighs/atom = 77.142857
Neighbor list builds = 0
Dangerous builds = 0
1 16 0 -0.696153845193413 -2.87031583541234 35790.8749945712 1.03351670656015e-14
Reading data file ...
  triclinic box = (0.0000000 0.0000000 0.0000000) to (208.95899 21.720000 29.851285) with tilt (-0.0000000 0.0000000 0.0000000)
  12 by 1 by 1 MPI processor grid
  reading atoms ...
  11424 atoms
  read_data CPU = 0.008 seconds
4080 atoms in group fixbulk1
4056 atoms in group fixbulk2
2736 atoms in group middle
5688 atoms in group right
264 atoms in group bulk
Displacing atoms ...
Neighbor list info ...
  update every 1 steps, delay 10 steps, check yes
  max neighbors/atom: 2000, page size: 100000
  master list distance cutoff = 6
  ghost atom cutoff = 6
  binsize = 3, bins = 70 8 10
  2 neighbor lists, perpetual/occasional/extra = 2 0 0
  (1) pair meam, perpetual
      attributes: full, newton on
      pair build: full/bin/atomonly
      stencil: full/bin/3d
      bin: standard
  (2) pair meam, perpetual, half/full from (1)
      attributes: half, newton on
      pair build: halffull/newton
      stencil: none
      bin: none
Setting up Verlet run ...
  Unit style    : metal
  Current step  : 0
  Time step     : 0.001
Per MPI rank memory allocation (min/avg/max) = 11.58 | 11.71 | 11.76 Mbytes
Step Lx Ly Lz c_emiddle Temp c_hulk_dis_ave_x 
       0     208.5618        21.72    29.851285   -7846.5777            0 1.0335167e-14 
Loop time of 5.126e-06 on 12 procs for 0 steps with 11424 atoms

94.3% CPU use with 12 MPI tasks x no OpenMP threads

MPI task timing breakdown:
Section |  min time  |  avg time  |  max time  |%varavg| %total
---------------------------------------------------------------
Pair    | 0          | 0          | 0          |   0.0 |  0.00
Neigh   | 0          | 0          | 0          |   0.0 |  0.00
Comm    | 0          | 0          | 0          |   0.0 |  0.00
Output  | 0          | 0          | 0          |   0.0 |  0.00
Modify  | 0          | 0          | 0          |   0.0 |  0.00
Other   |            | 5.126e-06  |            |       |100.00

Nlocal:        952.000 ave         960 max         936 min
Histogram: 4 0 0 0 0 0 0 0 0 8
Nghost:        2390.00 ave        2627 max        1749 min
Histogram: 1 1 0 0 0 0 1 4 1 4
Neighs:        36716.0 ave       37440 max       35256 min
Histogram: 2 0 0 0 0 4 0 0 1 5
FullNghs:      73432.0 ave       74880 max       70080 min
Histogram: 2 0 0 0 0 0 4 0 0 6

Total # of neighbors = 881184
Ave neighs/atom = 77.134454
Neighbor list builds = 0
Dangerous builds = 0
1 17 0 -0.74256410153964 -3.06167022443982 45439.8569673972 1.03351670656015e-14
Reading data file ...
  triclinic box = (0.0000000 0.0000000 0.0000000) to (208.95899 21.720000 29.851285) with tilt (-0.0000000 0.0000000 0.0000000)
  12 by 1 by 1 MPI processor grid
  reading atoms ...
  11424 atoms
  read_data CPU = 0.008 seconds
4080 atoms in group fixbulk1
4056 atoms in group fixbulk2
2736 atoms in group middle
5688 atoms in group right
264 atoms in group bulk
Displacing atoms ...
Neighbor list info ...
  update every 1 steps, delay 10 steps, check yes
  max neighbors/atom: 2000, page size: 100000
  master list distance cutoff = 6
  ghost atom cutoff = 6
  binsize = 3, bins = 70 8 10
  2 neighbor lists, perpetual/occasional/extra = 2 0 0
  (1) pair meam, perpetual
      attributes: full, newton on
      pair build: full/bin/atomonly
      stencil: full/bin/3d
      bin: standard
  (2) pair meam, perpetual, half/full from (1)
      attributes: half, newton on
      pair build: halffull/newton
      stencil: none
      bin: none
Setting up Verlet run ...
  Unit style    : metal
  Current step  : 0
  Time step     : 0.001
Per MPI rank memory allocation (min/avg/max) = 11.58 | 11.71 | 11.76 Mbytes
Step Lx Ly Lz c_emiddle Temp c_hulk_dis_ave_x 
       0     208.5618        21.72    29.851285   -7626.9617            0 1.0335167e-14 
Loop time of 6.47704e-06 on 12 procs for 0 steps with 11424 atoms

95.2% CPU use with 12 MPI tasks x no OpenMP threads

MPI task timing breakdown:
Section |  min time  |  avg time  |  max time  |%varavg| %total
---------------------------------------------------------------
Pair    | 0          | 0          | 0          |   0.0 |  0.00
Neigh   | 0          | 0          | 0          |   0.0 |  0.00
Comm    | 0          | 0          | 0          |   0.0 |  0.00
Output  | 0          | 0          | 0          |   0.0 |  0.00
Modify  | 0          | 0          | 0          |   0.0 |  0.00
Other   |            | 6.477e-06  |            |       |100.00

Nlocal:        952.000 ave         960 max         936 min
Histogram: 4 0 0 0 0 0 0 0 0 8
Nghost:        2408.00 ave        2627 max        1776 min
Histogram: 1 1 0 0 0 0 0 2 4 4
Neighs:        36714.0 ave       37440 max       35256 min
Histogram: 2 0 0 0 0 4 0 0 1 5
FullNghs:      73428.0 ave       74880 max       70080 min
Histogram: 2 0 0 0 0 0 4 0 0 6

Total # of neighbors = 881136
Ave neighs/atom = 77.130252
Neighbor list builds = 0
Dangerous builds = 0
1 18 0 -0.788974357885868 -3.25302461346731 50866.7536047626 1.03351670656015e-14
Reading data file ...
  triclinic box = (0.0000000 0.0000000 0.0000000) to (208.95899 21.720000 29.851285) with tilt (-0.0000000 0.0000000 0.0000000)
  12 by 1 by 1 MPI processor grid
  reading atoms ...
  11424 atoms
  read_data CPU = 0.008 seconds
4080 atoms in group fixbulk1
4056 atoms in group fixbulk2
2736 atoms in group middle
5688 atoms in group right
264 atoms in group bulk
Displacing atoms ...
Neighbor list info ...
  update every 1 steps, delay 10 steps, check yes
  max neighbors/atom: 2000, page size: 100000
  master list distance cutoff = 6
  ghost atom cutoff = 6
  binsize = 3, bins = 70 8 10
  2 neighbor lists, perpetual/occasional/extra = 2 0 0
  (1) pair meam, perpetual
      attributes: full, newton on
      pair build: full/bin/atomonly
      stencil: full/bin/3d
      bin: standard
  (2) pair meam, perpetual, half/full from (1)
      attributes: half, newton on
      pair build: halffull/newton
      stencil: none
      bin: none
Setting up Verlet run ...
  Unit style    : metal
  Current step  : 0
  Time step     : 0.001
Per MPI rank memory allocation (min/avg/max) = 11.58 | 11.71 | 11.76 Mbytes
Step Lx Ly Lz c_emiddle Temp c_hulk_dis_ave_x 
       0     208.5618        21.72    29.851285    -7694.607            0 1.0335167e-14 
Loop time of 5.00679e-06 on 12 procs for 0 steps with 11424 atoms

109.9% CPU use with 12 MPI tasks x no OpenMP threads

MPI task timing breakdown:
Section |  min time  |  avg time  |  max time  |%varavg| %total
---------------------------------------------------------------
Pair    | 0          | 0          | 0          |   0.0 |  0.00
Neigh   | 0          | 0          | 0          |   0.0 |  0.00
Comm    | 0          | 0          | 0          |   0.0 |  0.00
Output  | 0          | 0          | 0          |   0.0 |  0.00
Modify  | 0          | 0          | 0          |   0.0 |  0.00
Other   |            | 5.007e-06  |            |       |100.00

Nlocal:        952.000 ave         960 max         936 min
Histogram: 4 0 0 0 0 0 0 0 0 8
Nghost:        2390.75 ave        2627 max        1749 min
Histogram: 1 1 0 0 0 0 1 4 1 4
Neighs:        36720.0 ave       37440 max       35256 min
Histogram: 2 0 0 0 0 4 0 0 1 5
FullNghs:      73440.0 ave       74880 max       70080 min
Histogram: 2 0 0 0 0 0 4 0 0 6

Total # of neighbors = 881280
Ave neighs/atom = 77.142857
Neighbor list builds = 0
Dangerous builds = 0
1 19 0 -0.835384614232095 -3.4443790024948 49195.1823277594 1.03351670656015e-14
Reading data file ...
  triclinic box = (0.0000000 0.0000000 0.0000000) to (208.95899 21.720000 29.851285) with tilt (-0.0000000 0.0000000 0.0000000)
  12 by 1 by 1 MPI processor grid
  reading atoms ...
  11424 atoms
  read_data CPU = 0.010 seconds
4080 atoms in group fixbulk1
4056 atoms in group fixbulk2
2736 atoms in group middle
5688 atoms in group right
264 atoms in group bulk
Displacing atoms ...
Neighbor list info ...
  update every 1 steps, delay 10 steps, check yes
  max neighbors/atom: 2000, page size: 100000
  master list distance cutoff = 6
  ghost atom cutoff = 6
  binsize = 3, bins = 70 8 10
  2 neighbor lists, perpetual/occasional/extra = 2 0 0
  (1) pair meam, perpetual
      attributes: full, newton on
      pair build: full/bin/atomonly
      stencil: full/bin/3d
      bin: standard
  (2) pair meam, perpetual, half/full from (1)
      attributes: half, newton on
      pair build: halffull/newton
      stencil: none
      bin: none
Setting up Verlet run ...
  Unit style    : metal
  Current step  : 0
  Time step     : 0.001
Per MPI rank memory allocation (min/avg/max) = 11.58 | 11.71 | 11.76 Mbytes
Step Lx Ly Lz c_emiddle Temp c_hulk_dis_ave_x 
       0     208.5618        21.72    29.851285   -8039.3772            0 1.0335167e-14 
Loop time of 6.05981e-06 on 12 procs for 0 steps with 11424 atoms

96.3% CPU use with 12 MPI tasks x no OpenMP threads

MPI task timing breakdown:
Section |  min time  |  avg time  |  max time  |%varavg| %total
---------------------------------------------------------------
Pair    | 0          | 0          | 0          |   0.0 |  0.00
Neigh   | 0          | 0          | 0          |   0.0 |  0.00
Comm    | 0          | 0          | 0          |   0.0 |  0.00
Output  | 0          | 0          | 0          |   0.0 |  0.00
Modify  | 0          | 0          | 0          |   0.0 |  0.00
Other   |            | 6.06e-06   |            |       |100.00

Nlocal:        952.000 ave         960 max         936 min
Histogram: 4 0 0 0 0 0 0 0 0 8
Nghost:        2390.75 ave        2627 max        1749 min
Histogram: 1 1 0 0 0 0 1 4 1 4
Neighs:        36712.0 ave       37440 max       35256 min
Histogram: 2 0 0 0 0 4 0 0 2 4
FullNghs:      73424.0 ave       74880 max       70080 min
Histogram: 2 0 0 0 0 0 4 0 0 6

Total # of neighbors = 881088
Ave neighs/atom = 77.126050
Neighbor list builds = 0
Dangerous builds = 0
1 20 0 -0.881794870578323 -3.63573339152229 40675.6156616935 1.03351670656015e-14
Reading data file ...
  triclinic box = (0.0000000 0.0000000 0.0000000) to (208.95899 21.720000 29.851285) with tilt (-0.0000000 0.0000000 0.0000000)
  12 by 1 by 1 MPI processor grid
  reading atoms ...
  11424 atoms
  read_data CPU = 0.009 seconds
4080 atoms in group fixbulk1
4056 atoms in group fixbulk2
2736 atoms in group middle
5688 atoms in group right
264 atoms in group bulk
Displacing atoms ...
Neighbor list info ...
  update every 1 steps, delay 10 steps, check yes
  max neighbors/atom: 2000, page size: 100000
  master list distance cutoff = 6
  ghost atom cutoff = 6
  binsize = 3, bins = 70 8 10
  2 neighbor lists, perpetual/occasional/extra = 2 0 0
  (1) pair meam, perpetual
      attributes: full, newton on
      pair build: full/bin/atomonly
      stencil: full/bin/3d
      bin: standard
  (2) pair meam, perpetual, half/full from (1)
      attributes: half, newton on
      pair build: halffull/newton
      stencil: none
      bin: none
Setting up Verlet run ...
  Unit style    : metal
  Current step  : 0
  Time step     : 0.001
Per MPI rank memory allocation (min/avg/max) = 11.59 | 11.71 | 11.76 Mbytes
Step Lx Ly Lz c_emiddle Temp c_hulk_dis_ave_x 
       0     208.5618        21.72    29.851285   -8523.4877            0 1.0335167e-14 
Loop time of 5.26508e-06 on 12 procs for 0 steps with 11424 atoms

96.5% CPU use with 12 MPI tasks x no OpenMP threads

MPI task timing breakdown:
Section |  min time  |  avg time  |  max time  |%varavg| %total
---------------------------------------------------------------
Pair    | 0          | 0          | 0          |   0.0 |  0.00
Neigh   | 0          | 0          | 0          |   0.0 |  0.00
Comm    | 0          | 0          | 0          |   0.0 |  0.00
Output  | 0          | 0          | 0          |   0.0 |  0.00
Modify  | 0          | 0          | 0          |   0.0 |  0.00
Other   |            | 5.265e-06  |            |       |100.00

Nlocal:        952.000 ave         960 max         936 min
Histogram: 4 0 0 0 0 0 0 0 0 8
Nghost:        2390.00 ave        2627 max        1758 min
Histogram: 1 1 0 0 0 0 1 4 1 4
Neighs:        36712.0 ave       37440 max       35256 min
Histogram: 2 0 0 0 0 4 0 0 1 5
FullNghs:      73424.0 ave       74880 max       70080 min
Histogram: 2 0 0 0 0 0 4 0 0 6

Total # of neighbors = 881088
Ave neighs/atom = 77.126050
Neighbor list builds = 0
Dangerous builds = 0
1 21 0 -0.92820512692455 -3.82708778054978 28712.8327023851 1.03351670656015e-14
Reading data file ...
  triclinic box = (0.0000000 0.0000000 0.0000000) to (208.95899 21.720000 29.851285) with tilt (-0.0000000 0.0000000 0.0000000)
  12 by 1 by 1 MPI processor grid
  reading atoms ...
  11424 atoms
  read_data CPU = 0.008 seconds
4080 atoms in group fixbulk1
4056 atoms in group fixbulk2
2736 atoms in group middle
5688 atoms in group right
264 atoms in group bulk
Displacing atoms ...
Neighbor list info ...
  update every 1 steps, delay 10 steps, check yes
  max neighbors/atom: 2000, page size: 100000
  master list distance cutoff = 6
  ghost atom cutoff = 6
  binsize = 3, bins = 70 8 10
  2 neighbor lists, perpetual/occasional/extra = 2 0 0
  (1) pair meam, perpetual
      attributes: full, newton on
      pair build: full/bin/atomonly
      stencil: full/bin/3d
      bin: standard
  (2) pair meam, perpetual, half/full from (1)
      attributes: half, newton on
      pair build: halffull/newton
      stencil: none
      bin: none
Setting up Verlet run ...
  Unit style    : metal
  Current step  : 0
  Time step     : 0.001
Per MPI rank memory allocation (min/avg/max) = 11.59 | 11.71 | 11.76 Mbytes
Step Lx Ly Lz c_emiddle Temp c_hulk_dis_ave_x 
       0     208.5618        21.72    29.851285   -8965.6577            0 1.0335167e-14 
Loop time of 5.28495e-06 on 12 procs for 0 steps with 11424 atoms

112.0% CPU use with 12 MPI tasks x no OpenMP threads

MPI task timing breakdown:
Section |  min time  |  avg time  |  max time  |%varavg| %total
---------------------------------------------------------------
Pair    | 0          | 0          | 0          |   0.0 |  0.00
Neigh   | 0          | 0          | 0          |   0.0 |  0.00
Comm    | 0          | 0          | 0          |   0.0 |  0.00
Output  | 0          | 0          | 0          |   0.0 |  0.00
Modify  | 0          | 0          | 0          |   0.0 |  0.00
Other   |            | 5.285e-06  |            |       |100.00

Nlocal:        952.000 ave         960 max         936 min
Histogram: 4 0 0 0 0 0 0 0 0 8
Nghost:        2390.00 ave        2627 max        1758 min
Histogram: 1 1 0 0 0 0 1 4 1 4
Neighs:        36722.0 ave       37440 max       35256 min
Histogram: 2 0 0 0 0 4 0 0 1 5
FullNghs:      73444.0 ave       74880 max       70080 min
Histogram: 2 0 0 0 0 0 4 0 0 6

Total # of neighbors = 881328
Ave neighs/atom = 77.147059
Neighbor list builds = 0
Dangerous builds = 0
1 22 0 -0.974615383270778 -4.01844216957727 17786.4339755913 1.03351670656015e-14
Reading data file ...
  triclinic box = (0.0000000 0.0000000 0.0000000) to (208.95899 21.720000 29.851285) with tilt (-0.0000000 0.0000000 0.0000000)
  12 by 1 by 1 MPI processor grid
  reading atoms ...
  11424 atoms
  read_data CPU = 0.008 seconds
4080 atoms in group fixbulk1
4056 atoms in group fixbulk2
2736 atoms in group middle
5688 atoms in group right
264 atoms in group bulk
Displacing atoms ...
Neighbor list info ...
  update every 1 steps, delay 10 steps, check yes
  max neighbors/atom: 2000, page size: 100000
  master list distance cutoff = 6
  ghost atom cutoff = 6
  binsize = 3, bins = 70 8 10
  2 neighbor lists, perpetual/occasional/extra = 2 0 0
  (1) pair meam, perpetual
      attributes: full, newton on
      pair build: full/bin/atomonly
      stencil: full/bin/3d
      bin: standard
  (2) pair meam, perpetual, half/full from (1)
      attributes: half, newton on
      pair build: halffull/newton
      stencil: none
      bin: none
Setting up Verlet run ...
  Unit style    : metal
  Current step  : 0
  Time step     : 0.001
Per MPI rank memory allocation (min/avg/max) = 11.59 | 11.71 | 11.76 Mbytes
Step Lx Ly Lz c_emiddle Temp c_hulk_dis_ave_x 
       0     208.5618        21.72    29.851285   -9259.7395            0 1.0335167e-14 
Loop time of 5.48363e-06 on 12 procs for 0 steps with 11424 atoms

100.3% CPU use with 12 MPI tasks x no OpenMP threads

MPI task timing breakdown:
Section |  min time  |  avg time  |  max time  |%varavg| %total
---------------------------------------------------------------
Pair    | 0          | 0          | 0          |   0.0 |  0.00
Neigh   | 0          | 0          | 0          |   0.0 |  0.00
Comm    | 0          | 0          | 0          |   0.0 |  0.00
Output  | 0          | 0          | 0          |   0.0 |  0.00
Modify  | 0          | 0          | 0          |   0.0 |  0.00
Other   |            | 5.484e-06  |            |       |100.00

Nlocal:        952.000 ave         960 max         936 min
Histogram: 4 0 0 0 0 0 0 0 0 8
Nghost:        2407.25 ave        2627 max        1785 min
Histogram: 1 1 0 0 0 0 0 2 4 4
Neighs:        36724.0 ave       37440 max       35256 min
Histogram: 2 0 0 0 0 4 0 0 1 5
FullNghs:      73448.0 ave       74880 max       70080 min
Histogram: 2 0 0 0 0 0 4 0 0 6

Total # of neighbors = 881376
Ave neighs/atom = 77.151261
Neighbor list builds = 0
Dangerous builds = 0
1 23 0 -1.021025639617 -4.20979655860476 10519.4217379536 1.03351670656015e-14
Reading data file ...
  triclinic box = (0.0000000 0.0000000 0.0000000) to (208.95899 21.720000 29.851285) with tilt (-0.0000000 0.0000000 0.0000000)
  12 by 1 by 1 MPI processor grid
  reading atoms ...
  11424 atoms
  read_data CPU = 0.008 seconds
4080 atoms in group fixbulk1
4056 atoms in group fixbulk2
2736 atoms in group middle
5688 atoms in group right
264 atoms in group bulk
Displacing atoms ...
Neighbor list info ...
  update every 1 steps, delay 10 steps, check yes
  max neighbors/atom: 2000, page size: 100000
  master list distance cutoff = 6
  ghost atom cutoff = 6
  binsize = 3, bins = 70 8 10
  2 neighbor lists, perpetual/occasional/extra = 2 0 0
  (1) pair meam, perpetual
      attributes: full, newton on
      pair build: full/bin/atomonly
      stencil: full/bin/3d
      bin: standard
  (2) pair meam, perpetual, half/full from (1)
      attributes: half, newton on
      pair build: halffull/newton
      stencil: none
      bin: none
Setting up Verlet run ...
  Unit style    : metal
  Current step  : 0
  Time step     : 0.001
Per MPI rank memory allocation (min/avg/max) = 11.58 | 11.71 | 11.76 Mbytes
Step Lx Ly Lz c_emiddle Temp c_hulk_dis_ave_x 
       0     208.5618        21.72    29.851285   -9394.9798            0 1.0335167e-14 
Loop time of 8.08636e-06 on 12 procs for 0 steps with 11424 atoms

101.0% CPU use with 12 MPI tasks x no OpenMP threads

MPI task timing breakdown:
Section |  min time  |  avg time  |  max time  |%varavg| %total
---------------------------------------------------------------
Pair    | 0          | 0          | 0          |   0.0 |  0.00
Neigh   | 0          | 0          | 0          |   0.0 |  0.00
Comm    | 0          | 0          | 0          |   0.0 |  0.00
Output  | 0          | 0          | 0          |   0.0 |  0.00
Modify  | 0          | 0          | 0          |   0.0 |  0.00
Other   |            | 8.086e-06  |            |       |100.00

Nlocal:        952.000 ave         960 max         936 min
Histogram: 4 0 0 0 0 0 0 0 0 8
Nghost:        2390.00 ave        2627 max        1749 min
Histogram: 1 1 0 0 0 0 1 4 1 4
Neighs:        36722.0 ave       37440 max       35256 min
Histogram: 2 0 0 0 0 4 0 0 1 5
FullNghs:      73444.0 ave       74880 max       70080 min
Histogram: 2 0 0 0 0 0 4 0 0 6

Total # of neighbors = 881328
Ave neighs/atom = 77.147059
Neighbor list builds = 0
Dangerous builds = 0
1 24 0 -1.06743589596323 -4.40115094763225 7177.51958866826 1.03351670656015e-14
Reading data file ...
  triclinic box = (0.0000000 0.0000000 0.0000000) to (208.95899 21.720000 29.851285) with tilt (-0.0000000 0.0000000 0.0000000)
  12 by 1 by 1 MPI processor grid
  reading atoms ...
  11424 atoms
  read_data CPU = 0.008 seconds
4080 atoms in group fixbulk1
4056 atoms in group fixbulk2
2736 atoms in group middle
5688 atoms in group right
264 atoms in group bulk
Displacing atoms ...
Neighbor list info ...
  update every 1 steps, delay 10 steps, check yes
  max neighbors/atom: 2000, page size: 100000
  master list distance cutoff = 6
  ghost atom cutoff = 6
  binsize = 3, bins = 70 8 10
  2 neighbor lists, perpetual/occasional/extra = 2 0 0
  (1) pair meam, perpetual
      attributes: full, newton on
      pair build: full/bin/atomonly
      stencil: full/bin/3d
      bin: standard
  (2) pair meam, perpetual, half/full from (1)
      attributes: half, newton on
      pair build: halffull/newton
      stencil: none
      bin: none
Setting up Verlet run ...
  Unit style    : metal
  Current step  : 0
  Time step     : 0.001
Per MPI rank memory allocation (min/avg/max) = 11.58 | 11.71 | 11.76 Mbytes
Step Lx Ly Lz c_emiddle Temp c_hulk_dis_ave_x 
       0     208.5618        21.72    29.851285   -9403.4675            0 1.0335167e-14 
Loop time of 5.9406e-06 on 12 procs for 0 steps with 11424 atoms

98.2% CPU use with 12 MPI tasks x no OpenMP threads

MPI task timing breakdown:
Section |  min time  |  avg time  |  max time  |%varavg| %total
---------------------------------------------------------------
Pair    | 0          | 0          | 0          |   0.0 |  0.00
Neigh   | 0          | 0          | 0          |   0.0 |  0.00
Comm    | 0          | 0          | 0          |   0.0 |  0.00
Output  | 0          | 0          | 0          |   0.0 |  0.00
Modify  | 0          | 0          | 0          |   0.0 |  0.00
Other   |            | 5.941e-06  |            |       |100.00

Nlocal:        952.000 ave         960 max         936 min
Histogram: 4 0 0 0 0 0 0 0 0 8
Nghost:        2407.25 ave        2627 max        1776 min
Histogram: 1 1 0 0 0 0 0 2 4 4
Neighs:        36724.0 ave       37440 max       35256 min
Histogram: 2 0 0 0 0 4 0 0 1 5
FullNghs:      73448.0 ave       74880 max       70080 min
Histogram: 2 0 0 0 0 0 4 0 0 6

Total # of neighbors = 881376
Ave neighs/atom = 77.151261
Neighbor list builds = 0
Dangerous builds = 0
1 25 0 -1.11384615230946 -4.59250533665974 6967.78168111995 1.03351670656015e-14
Reading data file ...
  triclinic box = (0.0000000 0.0000000 0.0000000) to (208.95899 21.720000 29.851285) with tilt (-0.0000000 0.0000000 0.0000000)
  12 by 1 by 1 MPI processor grid
  reading atoms ...
  11424 atoms
  read_data CPU = 0.008 seconds
4080 atoms in group fixbulk1
4056 atoms in group fixbulk2
2736 atoms in group middle
5688 atoms in group right
264 atoms in group bulk
Displacing atoms ...
Neighbor list info ...
  update every 1 steps, delay 10 steps, check yes
  max neighbors/atom: 2000, page size: 100000
  master list distance cutoff = 6
  ghost atom cutoff = 6
  binsize = 3, bins = 70 8 10
  2 neighbor lists, perpetual/occasional/extra = 2 0 0
  (1) pair meam, perpetual
      attributes: full, newton on
      pair build: full/bin/atomonly
      stencil: full/bin/3d
      bin: standard
  (2) pair meam, perpetual, half/full from (1)
      attributes: half, newton on
      pair build: halffull/newton
      stencil: none
      bin: none
Setting up Verlet run ...
  Unit style    : metal
  Current step  : 0
  Time step     : 0.001
Per MPI rank memory allocation (min/avg/max) = 11.58 | 11.71 | 11.76 Mbytes
Step Lx Ly Lz c_emiddle Temp c_hulk_dis_ave_x 
       0     208.5618        21.72    29.851285   -9321.1723            0 1.0335167e-14 
Loop time of 6.57638e-06 on 12 procs for 0 steps with 11424 atoms

102.6% CPU use with 12 MPI tasks x no OpenMP threads

MPI task timing breakdown:
Section |  min time  |  avg time  |  max time  |%varavg| %total
---------------------------------------------------------------
Pair    | 0          | 0          | 0          |   0.0 |  0.00
Neigh   | 0          | 0          | 0          |   0.0 |  0.00
Comm    | 0          | 0          | 0          |   0.0 |  0.00
Output  | 0          | 0          | 0          |   0.0 |  0.00
Modify  | 0          | 0          | 0          |   0.0 |  0.00
Other   |            | 6.576e-06  |            |       |100.00

Nlocal:        952.000 ave         960 max         936 min
Histogram: 4 0 0 0 0 0 0 0 0 8
Nghost:        2390.00 ave        2627 max        1749 min
Histogram: 1 1 0 0 0 0 1 4 1 4
Neighs:        36726.0 ave       37440 max       35256 min
Histogram: 2 0 0 0 0 4 0 0 1 5
FullNghs:      73452.0 ave       74880 max       70080 min
Histogram: 2 0 0 0 0 0 4 0 0 6

Total # of neighbors = 881424
Ave neighs/atom = 77.155462
Neighbor list builds = 0
Dangerous builds = 0
1 26 0 -1.16025640865569 -4.78385972568722 9001.36545804961 1.03351670656015e-14
Reading data file ...
  triclinic box = (0.0000000 0.0000000 0.0000000) to (208.95899 21.720000 29.851285) with tilt (-0.0000000 0.0000000 0.0000000)
  12 by 1 by 1 MPI processor grid
  reading atoms ...
  11424 atoms
  read_data CPU = 0.009 seconds
4080 atoms in group fixbulk1
4056 atoms in group fixbulk2
2736 atoms in group middle
5688 atoms in group right
264 atoms in group bulk
Displacing atoms ...
Neighbor list info ...
  update every 1 steps, delay 10 steps, check yes
  max neighbors/atom: 2000, page size: 100000
  master list distance cutoff = 6
  ghost atom cutoff = 6
  binsize = 3, bins = 70 8 10
  2 neighbor lists, perpetual/occasional/extra = 2 0 0
  (1) pair meam, perpetual
      attributes: full, newton on
      pair build: full/bin/atomonly
      stencil: full/bin/3d
      bin: standard
  (2) pair meam, perpetual, half/full from (1)
      attributes: half, newton on
      pair build: halffull/newton
      stencil: none
      bin: none
Setting up Verlet run ...
  Unit style    : metal
  Current step  : 0
  Time step     : 0.001
Per MPI rank memory allocation (min/avg/max) = 11.58 | 11.71 | 11.76 Mbytes
Step Lx Ly Lz c_emiddle Temp c_hulk_dis_ave_x 
       0     208.5618        21.72    29.851285   -9188.0545            0 1.0335167e-14 
Loop time of 5.74191e-06 on 12 procs for 0 steps with 11424 atoms

98.7% CPU use with 12 MPI tasks x no OpenMP threads

MPI task timing breakdown:
Section |  min time  |  avg time  |  max time  |%varavg| %total
---------------------------------------------------------------
Pair    | 0          | 0          | 0          |   0.0 |  0.00
Neigh   | 0          | 0          | 0          |   0.0 |  0.00
Comm    | 0          | 0          | 0          |   0.0 |  0.00
Output  | 0          | 0          | 0          |   0.0 |  0.00
Modify  | 0          | 0          | 0          |   0.0 |  0.00
Other   |            | 5.742e-06  |            |       |100.00

Nlocal:        952.000 ave         960 max         936 min
Histogram: 4 0 0 0 0 0 0 0 0 8
Nghost:        2406.50 ave        2627 max        1776 min
Histogram: 1 1 0 0 0 0 0 2 4 4
Neighs:        36722.0 ave       37440 max       35256 min
Histogram: 2 0 0 0 0 4 0 0 1 5
FullNghs:      73444.0 ave       74880 max       70080 min
Histogram: 2 0 0 0 0 0 4 0 0 6

Total # of neighbors = 881328
Ave neighs/atom = 77.147059
Neighbor list builds = 0
Dangerous builds = 0
1 27 0 -1.20666666500192 -4.97521411471471 12290.8210195758 1.03351670656015e-14
Reading data file ...
  triclinic box = (0.0000000 0.0000000 0.0000000) to (208.95899 21.720000 29.851285) with tilt (-0.0000000 0.0000000 0.0000000)
  12 by 1 by 1 MPI processor grid
  reading atoms ...
  11424 atoms
  read_data CPU = 0.008 seconds
4080 atoms in group fixbulk1
4056 atoms in group fixbulk2
2736 atoms in group middle
5688 atoms in group right
264 atoms in group bulk
Displacing atoms ...
Neighbor list info ...
  update every 1 steps, delay 10 steps, check yes
  max neighbors/atom: 2000, page size: 100000
  master list distance cutoff = 6
  ghost atom cutoff = 6
  binsize = 3, bins = 70 8 10
  2 neighbor lists, perpetual/occasional/extra = 2 0 0
  (1) pair meam, perpetual
      attributes: full, newton on
      pair build: full/bin/atomonly
      stencil: full/bin/3d
      bin: standard
  (2) pair meam, perpetual, half/full from (1)
      attributes: half, newton on
      pair build: halffull/newton
      stencil: none
      bin: none
Setting up Verlet run ...
  Unit style    : metal
  Current step  : 0
  Time step     : 0.001
Per MPI rank memory allocation (min/avg/max) = 11.61 | 11.73 | 11.76 Mbytes
Step Lx Ly Lz c_emiddle Temp c_hulk_dis_ave_x 
       0     208.5618        21.72    29.851285   -9058.1343            0 1.0335167e-14 
Loop time of 5.82139e-06 on 12 procs for 0 steps with 11424 atoms

100.2% CPU use with 12 MPI tasks x no OpenMP threads

MPI task timing breakdown:
Section |  min time  |  avg time  |  max time  |%varavg| %total
---------------------------------------------------------------
Pair    | 0          | 0          | 0          |   0.0 |  0.00
Neigh   | 0          | 0          | 0          |   0.0 |  0.00
Comm    | 0          | 0          | 0          |   0.0 |  0.00
Output  | 0          | 0          | 0          |   0.0 |  0.00
Modify  | 0          | 0          | 0          |   0.0 |  0.00
Other   |            | 5.821e-06  |            |       |100.00

Nlocal:        952.000 ave         960 max         936 min
Histogram: 4 0 0 0 0 0 0 0 0 8
Nghost:        2480.58 ave        2627 max        1900 min
Histogram: 2 0 0 0 0 0 0 0 2 8
Neighs:        36720.0 ave       37440 max       35256 min
Histogram: 2 0 0 0 0 4 0 0 1 5
FullNghs:      73440.0 ave       74880 max       70080 min
Histogram: 2 0 0 0 0 0 4 0 0 6

Total # of neighbors = 881280
Ave neighs/atom = 77.142857
Neighbor list builds = 0
Dangerous builds = 0
1 28 0 -1.25307692134814 -5.1665685037422 15501.2595368502 1.03351670656015e-14
Reading data file ...
  triclinic box = (0.0000000 0.0000000 0.0000000) to (208.95899 21.720000 29.851285) with tilt (-0.0000000 0.0000000 0.0000000)
  12 by 1 by 1 MPI processor grid
  reading atoms ...
  11424 atoms
  read_data CPU = 0.008 seconds
4080 atoms in group fixbulk1
4056 atoms in group fixbulk2
2736 atoms in group middle
5688 atoms in group right
264 atoms in group bulk
Displacing atoms ...
Neighbor list info ...
  update every 1 steps, delay 10 steps, check yes
  max neighbors/atom: 2000, page size: 100000
  master list distance cutoff = 6
  ghost atom cutoff = 6
  binsize = 3, bins = 70 8 10
  2 neighbor lists, perpetual/occasional/extra = 2 0 0
  (1) pair meam, perpetual
      attributes: full, newton on
      pair build: full/bin/atomonly
      stencil: full/bin/3d
      bin: standard
  (2) pair meam, perpetual, half/full from (1)
      attributes: half, newton on
      pair build: halffull/newton
      stencil: none
      bin: none
Setting up Verlet run ...
  Unit style    : metal
  Current step  : 0
  Time step     : 0.001
Per MPI rank memory allocation (min/avg/max) = 11.61 | 11.73 | 11.76 Mbytes
Step Lx Ly Lz c_emiddle Temp c_hulk_dis_ave_x 
       0     208.5618        21.72    29.851285    -8992.549            0 1.0335167e-14 
Loop time of 6.0002e-06 on 12 procs for 0 steps with 11424 atoms

109.7% CPU use with 12 MPI tasks x no OpenMP threads

MPI task timing breakdown:
Section |  min time  |  avg time  |  max time  |%varavg| %total
---------------------------------------------------------------
Pair    | 0          | 0          | 0          |   0.0 |  0.00
Neigh   | 0          | 0          | 0          |   0.0 |  0.00
Comm    | 0          | 0          | 0          |   0.0 |  0.00
Output  | 0          | 0          | 0          |   0.0 |  0.00
Modify  | 0          | 0          | 0          |   0.0 |  0.00
Other   |            | 6e-06      |            |       |100.00

Nlocal:        952.000 ave         960 max         936 min
Histogram: 4 0 0 0 0 0 0 0 0 8
Nghost:        2480.58 ave        2627 max        1900 min
Histogram: 2 0 0 0 0 0 0 0 2 8
Neighs:        36724.0 ave       37440 max       35256 min
Histogram: 2 0 0 0 0 4 0 0 1 5
FullNghs:      73448.0 ave       74880 max       70080 min
Histogram: 2 0 0 0 0 0 4 0 0 6

Total # of neighbors = 881376
Ave neighs/atom = 77.151261
Neighbor list builds = 0
Dangerous builds = 0
1 29 0 -1.29948717769437 -5.35792289276969 17121.9275115901 1.03351670656015e-14
Reading data file ...
  triclinic box = (0.0000000 0.0000000 0.0000000) to (208.95899 21.720000 29.851285) with tilt (-0.0000000 0.0000000 0.0000000)
  12 by 1 by 1 MPI processor grid
  reading atoms ...
  11424 atoms
  read_data CPU = 0.007 seconds
4080 atoms in group fixbulk1
4056 atoms in group fixbulk2
2736 atoms in group middle
5688 atoms in group right
264 atoms in group bulk
Displacing atoms ...
Neighbor list info ...
  update every 1 steps, delay 10 steps, check yes
  max neighbors/atom: 2000, page size: 100000
  master list distance cutoff = 6
  ghost atom cutoff = 6
  binsize = 3, bins = 70 8 10
  2 neighbor lists, perpetual/occasional/extra = 2 0 0
  (1) pair meam, perpetual
      attributes: full, newton on
      pair build: full/bin/atomonly
      stencil: full/bin/3d
      bin: standard
  (2) pair meam, perpetual, half/full from (1)
      attributes: half, newton on
      pair build: halffull/newton
      stencil: none
      bin: none
Setting up Verlet run ...
  Unit style    : metal
  Current step  : 0
  Time step     : 0.001
Per MPI rank memory allocation (min/avg/max) = 11.61 | 11.73 | 11.76 Mbytes
Step Lx Ly Lz c_emiddle Temp c_hulk_dis_ave_x 
       0     208.5618        21.72    29.851285   -9022.7043            0 1.0335167e-14 
Loop time of 6.31809e-06 on 12 procs for 0 steps with 11424 atoms

81.8% CPU use with 12 MPI tasks x no OpenMP threads

MPI task timing breakdown:
Section |  min time  |  avg time  |  max time  |%varavg| %total
---------------------------------------------------------------
Pair    | 0          | 0          | 0          |   0.0 |  0.00
Neigh   | 0          | 0          | 0          |   0.0 |  0.00
Comm    | 0          | 0          | 0          |   0.0 |  0.00
Output  | 0          | 0          | 0          |   0.0 |  0.00
Modify  | 0          | 0          | 0          |   0.0 |  0.00
Other   |            | 6.318e-06  |            |       |100.00

Nlocal:        952.000 ave         960 max         936 min
Histogram: 4 0 0 0 0 0 0 0 0 8
Nghost:        2498.75 ave        2664 max        1909 min
Histogram: 2 0 0 0 0 0 0 0 2 8
Neighs:        36720.0 ave       37440 max       35256 min
Histogram: 2 0 0 0 0 4 0 0 2 4
FullNghs:      73440.0 ave       74880 max       70080 min
Histogram: 2 0 0 0 0 0 4 0 0 6

Total # of neighbors = 881280
Ave neighs/atom = 77.142857
Neighbor list builds = 0
Dangerous builds = 0
1 30 0 -1.3458974340406 -5.54927728179718 16376.7643872398 1.03351670656015e-14
Reading data file ...
  triclinic box = (0.0000000 0.0000000 0.0000000) to (208.95899 21.720000 29.851285) with tilt (-0.0000000 0.0000000 0.0000000)
  12 by 1 by 1 MPI processor grid
  reading atoms ...
  11424 atoms
  read_data CPU = 0.008 seconds
4080 atoms in group fixbulk1
4056 atoms in group fixbulk2
2736 atoms in group middle
5688 atoms in group right
264 atoms in group bulk
Displacing atoms ...
Neighbor list info ...
  update every 1 steps, delay 10 steps, check yes
  max neighbors/atom: 2000, page size: 100000
  master list distance cutoff = 6
  ghost atom cutoff = 6
  binsize = 3, bins = 70 8 10
  2 neighbor lists, perpetual/occasional/extra = 2 0 0
  (1) pair meam, perpetual
      attributes: full, newton on
      pair build: full/bin/atomonly
      stencil: full/bin/3d
      bin: standard
  (2) pair meam, perpetual, half/full from (1)
      attributes: half, newton on
      pair build: halffull/newton
      stencil: none
      bin: none
Setting up Verlet run ...
  Unit style    : metal
  Current step  : 0
  Time step     : 0.001
Per MPI rank memory allocation (min/avg/max) = 11.61 | 11.73 | 11.76 Mbytes
Step Lx Ly Lz c_emiddle Temp c_hulk_dis_ave_x 
       0     208.5618        21.72    29.851285   -9125.8216            0 1.0335167e-14 
Loop time of 6.57638e-06 on 12 procs for 0 steps with 11424 atoms

101.4% CPU use with 12 MPI tasks x no OpenMP threads

MPI task timing breakdown:
Section |  min time  |  avg time  |  max time  |%varavg| %total
---------------------------------------------------------------
Pair    | 0          | 0          | 0          |   0.0 |  0.00
Neigh   | 0          | 0          | 0          |   0.0 |  0.00
Comm    | 0          | 0          | 0          |   0.0 |  0.00
Output  | 0          | 0          | 0          |   0.0 |  0.00
Modify  | 0          | 0          | 0          |   0.0 |  0.00
Other   |            | 6.576e-06  |            |       |100.00

Nlocal:        952.000 ave         960 max         936 min
Histogram: 4 0 0 0 0 0 0 0 0 8
Nghost:        2480.58 ave        2627 max        1909 min
Histogram: 2 0 0 0 0 0 0 0 2 8
Neighs:        36724.0 ave       37440 max       35256 min
Histogram: 2 0 0 0 0 4 0 1 0 5
FullNghs:      73448.0 ave       74880 max       70080 min
Histogram: 2 0 0 0 0 0 4 0 0 6

Total # of neighbors = 881376
Ave neighs/atom = 77.151261
Neighbor list builds = 0
Dangerous builds = 0
1 31 0 -1.39230769038683 -5.74063167082467 13828.6483277074 1.03351670656015e-14
Reading data file ...
  triclinic box = (0.0000000 0.0000000 0.0000000) to (208.95899 21.720000 29.851285) with tilt (-0.0000000 0.0000000 0.0000000)
  12 by 1 by 1 MPI processor grid
  reading atoms ...
  11424 atoms
  read_data CPU = 0.010 seconds
4080 atoms in group fixbulk1
4056 atoms in group fixbulk2
2736 atoms in group middle
5688 atoms in group right
264 atoms in group bulk
Displacing atoms ...
Neighbor list info ...
  update every 1 steps, delay 10 steps, check yes
  max neighbors/atom: 2000, page size: 100000
  master list distance cutoff = 6
  ghost atom cutoff = 6
  binsize = 3, bins = 70 8 10
  2 neighbor lists, perpetual/occasional/extra = 2 0 0
  (1) pair meam, perpetual
      attributes: full, newton on
      pair build: full/bin/atomonly
      stencil: full/bin/3d
      bin: standard
  (2) pair meam, perpetual, half/full from (1)
      attributes: half, newton on
      pair build: halffull/newton
      stencil: none
      bin: none
Setting up Verlet run ...
  Unit style    : metal
  Current step  : 0
  Time step     : 0.001
Per MPI rank memory allocation (min/avg/max) = 11.61 | 11.73 | 11.76 Mbytes
Step Lx Ly Lz c_emiddle Temp c_hulk_dis_ave_x 
       0     208.5618        21.72    29.851285   -9239.0528            0 1.0335167e-14 
Loop time of 7.13269e-06 on 12 procs for 0 steps with 11424 atoms

113.3% CPU use with 12 MPI tasks x no OpenMP threads

MPI task timing breakdown:
Section |  min time  |  avg time  |  max time  |%varavg| %total
---------------------------------------------------------------
Pair    | 0          | 0          | 0          |   0.0 |  0.00
Neigh   | 0          | 0          | 0          |   0.0 |  0.00
Comm    | 0          | 0          | 0          |   0.0 |  0.00
Output  | 0          | 0          | 0          |   0.0 |  0.00
Modify  | 0          | 0          | 0          |   0.0 |  0.00
Other   |            | 7.133e-06  |            |       |100.00

Nlocal:        952.000 ave         960 max         936 min
Histogram: 4 0 0 0 0 0 0 0 0 8
Nghost:        2498.83 ave        2664 max        1909 min
Histogram: 2 0 0 0 0 0 0 0 2 8
Neighs:        36720.0 ave       37440 max       35256 min
Histogram: 2 0 0 0 0 4 0 0 1 5
FullNghs:      73440.0 ave       74880 max       70080 min
Histogram: 2 0 0 0 0 0 4 0 0 6

Total # of neighbors = 881280
Ave neighs/atom = 77.142857
Neighbor list builds = 0
Dangerous builds = 0
1 32 0 -1.43871794673305 -5.93198605985216 11030.6087304658 1.03351670656015e-14
Reading data file ...
  triclinic box = (0.0000000 0.0000000 0.0000000) to (208.95899 21.720000 29.851285) with tilt (-0.0000000 0.0000000 0.0000000)
  12 by 1 by 1 MPI processor grid
  reading atoms ...
  11424 atoms
  read_data CPU = 0.008 seconds
4080 atoms in group fixbulk1
4056 atoms in group fixbulk2
2736 atoms in group middle
5688 atoms in group right
264 atoms in group bulk
Displacing atoms ...
Neighbor list info ...
  update every 1 steps, delay 10 steps, check yes
  max neighbors/atom: 2000, page size: 100000
  master list distance cutoff = 6
  ghost atom cutoff = 6
  binsize = 3, bins = 70 8 10
  2 neighbor lists, perpetual/occasional/extra = 2 0 0
  (1) pair meam, perpetual
      attributes: full, newton on
      pair build: full/bin/atomonly
      stencil: full/bin/3d
      bin: standard
  (2) pair meam, perpetual, half/full from (1)
      attributes: half, newton on
      pair build: halffull/newton
      stencil: none
      bin: none
[...]
Histogram: 2 0 0 0 0 0 4 0 0 6

Total # of neighbors = 881136
Ave neighs/atom = 77.130252
Neighbor list builds = 0
Dangerous builds = 0
19 31 0 2.0371659890923 -5.74063167082467 16974.8713572104 1.03351670656015e-14
Reading data file ...
  triclinic box = (0.0000000 0.0000000 0.0000000) to (208.95899 21.720000 29.851285) with tilt (-0.0000000 0.0000000 0.0000000)
  12 by 1 by 1 MPI processor grid
  reading atoms ...
  11424 atoms
  read_data CPU = 0.009 seconds
4080 atoms in group fixbulk1
4056 atoms in group fixbulk2
2736 atoms in group middle
5688 atoms in group right
264 atoms in group bulk
Displacing atoms ...
Neighbor list info ...
  update every 1 steps, delay 10 steps, check yes
  max neighbors/atom: 2000, page size: 100000
  master list distance cutoff = 6
  ghost atom cutoff = 6
  binsize = 3, bins = 70 8 10
  2 neighbor lists, perpetual/occasional/extra = 2 0 0
  (1) pair meam, perpetual
      attributes: full, newton on
      pair build: full/bin/atomonly
      stencil: full/bin/3d
      bin: standard
  (2) pair meam, perpetual, half/full from (1)
      attributes: half, newton on
      pair build: halffull/newton
      stencil: none
      bin: none
Setting up Verlet run ...
  Unit style    : metal
  Current step  : 0
  Time step     : 0.001
Per MPI rank memory allocation (min/avg/max) = 11.61 | 11.73 | 11.76 Mbytes
Step Lx Ly Lz c_emiddle Temp c_hulk_dis_ave_x 
       0     208.5618        21.72    29.851285   -9161.7237            0 1.0335167e-14 
Loop time of 5.54323e-06 on 12 procs for 0 steps with 11424 atoms

106.7% CPU use with 12 MPI tasks x no OpenMP threads

MPI task timing breakdown:
Section |  min time  |  avg time  |  max time  |%varavg| %total
---------------------------------------------------------------
Pair    | 0          | 0          | 0          |   0.0 |  0.00
Neigh   | 0          | 0          | 0          |   0.0 |  0.00
Comm    | 0          | 0          | 0          |   0.0 |  0.00
Output  | 0          | 0          | 0          |   0.0 |  0.00
Modify  | 0          | 0          | 0          |   0.0 |  0.00
Other   |            | 5.543e-06  |            |       |100.00

Nlocal:        952.000 ave         960 max         936 min
Histogram: 4 0 0 0 0 0 0 0 0 8
Nghost:        2498.83 ave        2664 max        1909 min
Histogram: 2 0 0 0 0 0 0 0 2 8
Neighs:        36716.0 ave       37440 max       35256 min
Histogram: 2 0 0 0 0 4 0 0 2 4
FullNghs:      73432.0 ave       74880 max       70080 min
Histogram: 2 0 0 0 0 0 4 0 0 6

Total # of neighbors = 881184
Ave neighs/atom = 77.134454
Neighbor list builds = 0
Dangerous builds = 0
19 32 0 1.99075573274607 -5.93198605985216 12941.476871989 1.03351670656015e-14
Reading data file ...
  triclinic box = (0.0000000 0.0000000 0.0000000) to (208.95899 21.720000 29.851285) with tilt (-0.0000000 0.0000000 0.0000000)
  12 by 1 by 1 MPI processor grid
  reading atoms ...
  11424 atoms
  read_data CPU = 0.008 seconds
4080 atoms in group fixbulk1
4056 atoms in group fixbulk2
2736 atoms in group middle
5688 atoms in group right
264 atoms in group bulk
Displacing atoms ...
Neighbor list info ...
  update every 1 steps, delay 10 steps, check yes
  max neighbors/atom: 2000, page size: 100000
  master list distance cutoff = 6
  ghost atom cutoff = 6
  binsize = 3, bins = 70 8 10
  2 neighbor lists, perpetual/occasional/extra = 2 0 0
  (1) pair meam, perpetual
      attributes: full, newton on
      pair build: full/bin/atomonly
      stencil: full/bin/3d
      bin: standard
  (2) pair meam, perpetual, half/full from (1)
      attributes: half, newton on
      pair build: halffull/newton
      stencil: none
      bin: none
Setting up Verlet run ...
  Unit style    : metal
  Current step  : 0
  Time step     : 0.001
Per MPI rank memory allocation (min/avg/max) = 11.61 | 11.73 | 11.76 Mbytes
Step Lx Ly Lz c_emiddle Temp c_hulk_dis_ave_x 
       0     208.5618        21.72    29.851285   -9213.8419            0 1.0335167e-14 
Loop time of 5.52336e-06 on 12 procs for 0 steps with 11424 atoms

105.6% CPU use with 12 MPI tasks x no OpenMP threads

MPI task timing breakdown:
Section |  min time  |  avg time  |  max time  |%varavg| %total
---------------------------------------------------------------
Pair    | 0          | 0          | 0          |   0.0 |  0.00
Neigh   | 0          | 0          | 0          |   0.0 |  0.00
Comm    | 0          | 0          | 0          |   0.0 |  0.00
Output  | 0          | 0          | 0          |   0.0 |  0.00
Modify  | 0          | 0          | 0          |   0.0 |  0.00
Other   |            | 5.523e-06  |            |       |100.00

Nlocal:        952.000 ave         960 max         936 min
Histogram: 4 0 0 0 0 0 0 0 0 8
Nghost:        2481.50 ave        2627 max        1909 min
Histogram: 2 0 0 0 0 0 0 0 2 8
Neighs:        36728.0 ave       37440 max       35256 min
Histogram: 2 0 0 0 0 4 0 0 1 5
FullNghs:      73456.0 ave       74928 max       70080 min
Histogram: 2 0 0 0 0 0 4 0 0 6

Total # of neighbors = 881472
Ave neighs/atom = 77.159664
Neighbor list builds = 0
Dangerous builds = 0
19 33 0 1.94434547639984 -6.12334044887965 11653.5920964133 1.03351670656015e-14
Reading data file ...
  triclinic box = (0.0000000 0.0000000 0.0000000) to (208.95899 21.720000 29.851285) with tilt (-0.0000000 0.0000000 0.0000000)
  12 by 1 by 1 MPI processor grid
  reading atoms ...
  11424 atoms
  read_data CPU = 0.009 seconds
4080 atoms in group fixbulk1
4056 atoms in group fixbulk2
2736 atoms in group middle
5688 atoms in group right
264 atoms in group bulk
Displacing atoms ...
Neighbor list info ...
  update every 1 steps, delay 10 steps, check yes
  max neighbors/atom: 2000, page size: 100000
  master list distance cutoff = 6
  ghost atom cutoff = 6
  binsize = 3, bins = 70 8 10
  2 neighbor lists, perpetual/occasional/extra = 2 0 0
  (1) pair meam, perpetual
      attributes: full, newton on
      pair build: full/bin/atomonly
      stencil: full/bin/3d
      bin: standard
  (2) pair meam, perpetual, half/full from (1)
      attributes: half, newton on
      pair build: halffull/newton
      stencil: none
      bin: none
Setting up Verlet run ...
  Unit style    : metal
  Current step  : 0
  Time step     : 0.001
Per MPI rank memory allocation (min/avg/max) = 11.61 | 11.73 | 11.76 Mbytes
Step Lx Ly Lz c_emiddle Temp c_hulk_dis_ave_x 
       0     208.5618        21.72    29.851285   -9016.1721            0 1.0335167e-14 
Loop time of 5.96046e-06 on 12 procs for 0 steps with 11424 atoms

102.1% CPU use with 12 MPI tasks x no OpenMP threads

MPI task timing breakdown:
Section |  min time  |  avg time  |  max time  |%varavg| %total
---------------------------------------------------------------
Pair    | 0          | 0          | 0          |   0.0 |  0.00
Neigh   | 0          | 0          | 0          |   0.0 |  0.00
Comm    | 0          | 0          | 0          |   0.0 |  0.00
Output  | 0          | 0          | 0          |   0.0 |  0.00
Modify  | 0          | 0          | 0          |   0.0 |  0.00
Other   |            | 5.96e-06   |            |       |100.00

Nlocal:        952.000 ave         960 max         936 min
Histogram: 4 0 0 0 0 0 0 0 0 8
Nghost:        2499.67 ave        2664 max        1909 min
Histogram: 2 0 0 0 0 0 0 0 2 8
Neighs:        36722.0 ave       37440 max       35256 min
Histogram: 2 0 0 0 0 4 0 0 2 4
FullNghs:      73444.0 ave       74880 max       70080 min
Histogram: 2 0 0 0 0 0 4 0 0 6

Total # of neighbors = 881328
Ave neighs/atom = 77.147059
Neighbor list builds = 0
Dangerous builds = 0
19 34 0 1.89793522005362 -6.31469483790714 16538.1813008813 1.03351670656015e-14
Reading data file ...
  triclinic box = (0.0000000 0.0000000 0.0000000) to (208.95899 21.720000 29.851285) with tilt (-0.0000000 0.0000000 0.0000000)
  12 by 1 by 1 MPI processor grid
  reading atoms ...
  11424 atoms
  read_data CPU = 0.007 seconds
4080 atoms in group fixbulk1
4056 atoms in group fixbulk2
2736 atoms in group middle
5688 atoms in group right
264 atoms in group bulk
Displacing atoms ...
Neighbor list info ...
  update every 1 steps, delay 10 steps, check yes
  max neighbors/atom: 2000, page size: 100000
  master list distance cutoff = 6
  ghost atom cutoff = 6
  binsize = 3, bins = 70 8 10
  2 neighbor lists, perpetual/occasional/extra = 2 0 0
  (1) pair meam, perpetual
      attributes: full, newton on
      pair build: full/bin/atomonly
      stencil: full/bin/3d
      bin: standard
  (2) pair meam, perpetual, half/full from (1)
      attributes: half, newton on
      pair build: halffull/newton
      stencil: none
      bin: none
Setting up Verlet run ...
  Unit style    : metal
  Current step  : 0
  Time step     : 0.001
Per MPI rank memory allocation (min/avg/max) = 11.61 | 11.73 | 11.76 Mbytes
Step Lx Ly Lz c_emiddle Temp c_hulk_dis_ave_x 
       0     208.5618        21.72    29.851285   -8370.6699            0 1.0335167e-14 
Loop time of 6.07967e-06 on 12 procs for 0 steps with 11424 atoms

104.2% CPU use with 12 MPI tasks x no OpenMP threads

MPI task timing breakdown:
Section |  min time  |  avg time  |  max time  |%varavg| %total
---------------------------------------------------------------
Pair    | 0          | 0          | 0          |   0.0 |  0.00
Neigh   | 0          | 0          | 0          |   0.0 |  0.00
Comm    | 0          | 0          | 0          |   0.0 |  0.00
Output  | 0          | 0          | 0          |   0.0 |  0.00
Modify  | 0          | 0          | 0          |   0.0 |  0.00
Other   |            | 6.08e-06   |            |       |100.00

Nlocal:        952.000 ave         960 max         936 min
Histogram: 4 0 0 0 0 0 0 0 0 8
Nghost:        2482.17 ave        2627 max        1909 min
Histogram: 2 0 0 0 0 0 0 0 2 8
Neighs:        36712.0 ave       37440 max       35256 min
Histogram: 2 0 0 0 0 4 0 0 1 5
FullNghs:      73424.0 ave       74880 max       70080 min
Histogram: 2 0 0 0 0 0 4 0 0 6

Total # of neighbors = 881088
Ave neighs/atom = 77.126050
Neighbor list builds = 0
Dangerous builds = 0
19 35 0 1.85152496370739 -6.50604922693463 32489.0917149104 1.03351670656015e-14
Reading data file ...
  triclinic box = (0.0000000 0.0000000 0.0000000) to (208.95899 21.720000 29.851285) with tilt (-0.0000000 0.0000000 0.0000000)
  12 by 1 by 1 MPI processor grid
  reading atoms ...
  11424 atoms
  read_data CPU = 0.010 seconds
4080 atoms in group fixbulk1
4056 atoms in group fixbulk2
2736 atoms in group middle
5688 atoms in group right
264 atoms in group bulk
Displacing atoms ...
Neighbor list info ...
  update every 1 steps, delay 10 steps, check yes
  max neighbors/atom: 2000, page size: 100000
  master list distance cutoff = 6
  ghost atom cutoff = 6
  binsize = 3, bins = 70 8 10
  2 neighbor lists, perpetual/occasional/extra = 2 0 0
  (1) pair meam, perpetual
      attributes: full, newton on
      pair build: full/bin/atomonly
      stencil: full/bin/3d
      bin: standard
  (2) pair meam, perpetual, half/full from (1)
      attributes: half, newton on
      pair build: halffull/newton
      stencil: none
      bin: none
Setting up Verlet run ...
  Unit style    : metal
  Current step  : 0
  Time step     : 0.001
Per MPI rank memory allocation (min/avg/max) = 11.61 | 11.72 | 11.76 Mbytes
Step Lx Ly Lz c_emiddle Temp c_hulk_dis_ave_x 
       0     208.5618        21.72    29.851285   -7121.1642            0 1.0335167e-14 
Loop time of 5.88099e-06 on 12 procs for 0 steps with 11424 atoms

28.3% CPU use with 12 MPI tasks x no OpenMP threads

MPI task timing breakdown:
Section |  min time  |  avg time  |  max time  |%varavg| %total
---------------------------------------------------------------
Pair    | 0          | 0          | 0          |   0.0 |  0.00
Neigh   | 0          | 0          | 0          |   0.0 |  0.00
Comm    | 0          | 0          | 0          |   0.0 |  0.00
Output  | 0          | 0          | 0          |   0.0 |  0.00
Modify  | 0          | 0          | 0          |   0.0 |  0.00
Other   |            | 5.881e-06  |            |       |100.00

Nlocal:        952.000 ave         960 max         936 min
Histogram: 4 0 0 0 0 0 0 0 0 8
Nghost:        2482.17 ave        2627 max        1909 min
Histogram: 2 0 0 0 0 0 0 0 2 8
Neighs:        36710.0 ave       37440 max       35256 min
Histogram: 2 0 0 0 0 4 0 0 2 4
FullNghs:      73420.0 ave       74880 max       70080 min
Histogram: 2 0 0 0 0 0 4 0 0 6

Total # of neighbors = 881040
Ave neighs/atom = 77.121849
Neighbor list builds = 0
Dangerous builds = 0
19 36 0 1.80511470736116 -6.69740361596211 63365.4427639844 1.03351670656015e-14
Reading data file ...
  triclinic box = (0.0000000 0.0000000 0.0000000) to (208.95899 21.720000 29.851285) with tilt (-0.0000000 0.0000000 0.0000000)
  12 by 1 by 1 MPI processor grid
  reading atoms ...
  11424 atoms
  read_data CPU = 0.010 seconds
4080 atoms in group fixbulk1
4056 atoms in group fixbulk2
2736 atoms in group middle
5688 atoms in group right
264 atoms in group bulk
Displacing atoms ...
Neighbor list info ...
  update every 1 steps, delay 10 steps, check yes
  max neighbors/atom: 2000, page size: 100000
  master list distance cutoff = 6
  ghost atom cutoff = 6
  binsize = 3, bins = 70 8 10
  2 neighbor lists, perpetual/occasional/extra = 2 0 0
  (1) pair meam, perpetual
      attributes: full, newton on
      pair build: full/bin/atomonly
      stencil: full/bin/3d
      bin: standard
  (2) pair meam, perpetual, half/full from (1)
      attributes: half, newton on
      pair build: halffull/newton
      stencil: none
      bin: none
Setting up Verlet run ...
  Unit style    : metal
  Current step  : 0
  Time step     : 0.001
Per MPI rank memory allocation (min/avg/max) = 11.61 | 11.72 | 11.76 Mbytes
Step Lx Ly Lz c_emiddle Temp c_hulk_dis_ave_x 
       0     208.5618        21.72    29.851285   -5583.1328            0 1.0335167e-14 
Loop time of 5.32468e-06 on 12 procs for 0 steps with 11424 atoms

115.8% CPU use with 12 MPI tasks x no OpenMP threads

MPI task timing breakdown:
Section |  min time  |  avg time  |  max time  |%varavg| %total
---------------------------------------------------------------
Pair    | 0          | 0          | 0          |   0.0 |  0.00
Neigh   | 0          | 0          | 0          |   0.0 |  0.00
Comm    | 0          | 0          | 0          |   0.0 |  0.00
Output  | 0          | 0          | 0          |   0.0 |  0.00
Modify  | 0          | 0          | 0          |   0.0 |  0.00
Other   |            | 5.325e-06  |            |       |100.00

Nlocal:        952.000 ave         960 max         936 min
Histogram: 4 0 0 0 0 0 0 0 0 8
Nghost:        2482.25 ave        2627 max        1909 min
Histogram: 2 0 0 0 0 0 0 0 2 8
Neighs:        36714.0 ave       37440 max       35256 min
Histogram: 2 0 0 0 0 4 0 0 2 4
FullNghs:      73428.0 ave       74880 max       70080 min
Histogram: 2 0 0 0 0 0 4 0 0 6

Total # of neighbors = 881136
Ave neighs/atom = 77.130252
Neighbor list builds = 0
Dangerous builds = 0
19 37 0 1.75870445101493 -6.8887580049896 101371.509862331 1.03351670656015e-14
Reading data file ...
  triclinic box = (0.0000000 0.0000000 0.0000000) to (208.95899 21.720000 29.851285) with tilt (-0.0000000 0.0000000 0.0000000)
  12 by 1 by 1 MPI processor grid
  reading atoms ...
  11424 atoms
  read_data CPU = 0.007 seconds
4080 atoms in group fixbulk1
4056 atoms in group fixbulk2
2736 atoms in group middle
5688 atoms in group right
264 atoms in group bulk
Displacing atoms ...
Neighbor list info ...
  update every 1 steps, delay 10 steps, check yes
  max neighbors/atom: 2000, page size: 100000
  master list distance cutoff = 6
  ghost atom cutoff = 6
  binsize = 3, bins = 70 8 10
  2 neighbor lists, perpetual/occasional/extra = 2 0 0
  (1) pair meam, perpetual
      attributes: full, newton on
      pair build: full/bin/atomonly
      stencil: full/bin/3d
      bin: standard
  (2) pair meam, perpetual, half/full from (1)
      attributes: half, newton on
      pair build: halffull/newton
      stencil: none
      bin: none
Setting up Verlet run ...
  Unit style    : metal
  Current step  : 0
  Time step     : 0.001
Per MPI rank memory allocation (min/avg/max) = 11.61 | 11.72 | 11.76 Mbytes
Step Lx Ly Lz c_emiddle Temp c_hulk_dis_ave_x 
       0     208.5618        21.72    29.851285   -3962.6345            0 1.0335167e-14 
Loop time of 5.32468e-06 on 12 procs for 0 steps with 11424 atoms

109.6% CPU use with 12 MPI tasks x no OpenMP threads

MPI task timing breakdown:
Section |  min time  |  avg time  |  max time  |%varavg| %total
---------------------------------------------------------------
Pair    | 0          | 0          | 0          |   0.0 |  0.00
Neigh   | 0          | 0          | 0          |   0.0 |  0.00
Comm    | 0          | 0          | 0          |   0.0 |  0.00
Output  | 0          | 0          | 0          |   0.0 |  0.00
Modify  | 0          | 0          | 0          |   0.0 |  0.00
Other   |            | 5.325e-06  |            |       |100.00

Nlocal:        952.000 ave         960 max         936 min
Histogram: 4 0 0 0 0 0 0 0 0 8
Nghost:        2482.25 ave        2627 max        1909 min
Histogram: 2 0 0 0 0 0 0 0 2 8
Neighs:        36724.0 ave       37440 max       35256 min
Histogram: 2 0 0 0 0 4 0 0 2 4
FullNghs:      73448.0 ave       74880 max       70080 min
Histogram: 2 0 0 0 0 0 4 0 0 6

Total # of neighbors = 881376
Ave neighs/atom = 77.151261
Neighbor list builds = 0
Dangerous builds = 0
19 38 0 1.71229419466871 -7.08011239401709 141415.404712265 1.03351670656015e-14
Reading data file ...
  triclinic box = (0.0000000 0.0000000 0.0000000) to (208.95899 21.720000 29.851285) with tilt (-0.0000000 0.0000000 0.0000000)
  12 by 1 by 1 MPI processor grid
  reading atoms ...
  11424 atoms
  read_data CPU = 0.010 seconds
4080 atoms in group fixbulk1
4056 atoms in group fixbulk2
2736 atoms in group middle
5688 atoms in group right
264 atoms in group bulk
Displacing atoms ...
Neighbor list info ...
  update every 1 steps, delay 10 steps, check yes
  max neighbors/atom: 2000, page size: 100000
  master list distance cutoff = 6
  ghost atom cutoff = 6
  binsize = 3, bins = 70 8 10
  2 neighbor lists, perpetual/occasional/extra = 2 0 0
  (1) pair meam, perpetual
      attributes: full, newton on
      pair build: full/bin/atomonly
      stencil: full/bin/3d
      bin: standard
  (2) pair meam, perpetual, half/full from (1)
      attributes: half, newton on
      pair build: halffull/newton
      stencil: none
      bin: none
Setting up Verlet run ...
  Unit style    : metal
  Current step  : 0
  Time step     : 0.001
Per MPI rank memory allocation (min/avg/max) = 11.61 | 11.73 | 11.76 Mbytes
Step Lx Ly Lz c_emiddle Temp c_hulk_dis_ave_x 
       0     208.5618        21.72    29.851285   -2662.7438            0 1.0335167e-14 
Loop time of 5.10613e-06 on 12 procs for 0 steps with 11424 atoms

120.8% CPU use with 12 MPI tasks x no OpenMP threads

MPI task timing breakdown:
Section |  min time  |  avg time  |  max time  |%varavg| %total
---------------------------------------------------------------
Pair    | 0          | 0          | 0          |   0.0 |  0.00
Neigh   | 0          | 0          | 0          |   0.0 |  0.00
Comm    | 0          | 0          | 0          |   0.0 |  0.00
Output  | 0          | 0          | 0          |   0.0 |  0.00
Modify  | 0          | 0          | 0          |   0.0 |  0.00
Other   |            | 5.106e-06  |            |       |100.00

Nlocal:        952.000 ave         960 max         936 min
Histogram: 4 0 0 0 0 0 0 0 0 8
Nghost:        2500.50 ave        2664 max        1909 min
Histogram: 2 0 0 0 0 0 0 0 2 8
Neighs:        36724.0 ave       37440 max       35256 min
Histogram: 2 0 0 0 0 4 0 0 1 5
FullNghs:      73448.0 ave       74880 max       70080 min
Histogram: 2 0 0 0 0 0 4 0 0 6

Total # of neighbors = 881376
Ave neighs/atom = 77.151261
Neighbor list builds = 0
Dangerous builds = 0
19 39 0 1.66588393832248 -7.27146678304458 173536.812564758 1.03351670656015e-14
Total wall time: 0:00:34
