ITEM: TIMESTEP
0
ITEM: NUMBER OF ATOMS
11424
ITEM: BOX BOUNDS xy xz yz ss pp pp
-2.0895899281999992e-02 2.0854089923928203e+02 0.0000000000000000e+00
0.0000000000000000e+00 2.1719999970000000e+01 0.0000000000000000e+00
0.0000000000000000e+00 2.9851284690000000e+01 0.0000000000000000e+00
ITEM: ATOMS id type x y z c_eng
1 1 13.1697 1.81 14.4867 -3.54
2 1 13.1697 5.43 14.4867 -3.54
3 1 13.1697 9.05 14.4867 -3.54
4 1 13.1697 12.67 14.4867 -3.54
5 1 13.1697 16.29 14.4867 -3.54
6 1 13.1697 19.91 14.4867 -3.54
43 1 13.1697 1.81 29.4123 -3.54
44 1 13.1697 5.43 29.4123 -3.54
45 1 13.1697 9.05 29.4123 -3.54
46 1 13.1697 12.67 29.4123 -3.54
47 1 13.1697 16.29 29.4123 -3.54
48 1 13.1697 19.91 29.4123 -3.54
85 1 11.4137 0 14.0477 -3.54
86 1 11.4137 3.62 14.0477 -3.54
87 1 11.4137 7.24 14.0477 -3.54
88 1 11.4137 10.86 14.0477 -3.54
89 1 11.4137 14.48 14.0477 -3.54
90 1 11.4137 18.1 14.0477 -3.54
127 1 11.4137 0 28.9733 -3.54
128 1 11.4137 3.62 28.9733 -3.54
129 1 11.4137 7.24 28.9733 -3.54
130 1 11.4137 10.86 28.9733 -3.54
131 1 11.4137 14.48 28.9733 -3.54
132 1 11.4137 18.1 28.9733 -3.54
169 1 13.6087 0 12.7307 -3.54
170 1 13.6087 3.62 12.7307 -3.54
171 1 13.6087 7.24 12.7307 -3.54
172 1 13.6087 10.86 12.7307 -3.54
173 1 13.6087 14.48 12.7307 -3.54
174 1 13.6087 18.1 12.7307 -3.54
211 1 13.6087 0 27.6563 -3.54
212 1 13.6087 3.62 27.6563 -3.54
213 1 13.6087 7.24 27.6563 -3.54
214 1 13.6087 10.86 27.6563 -3.54
215 1 13.6087 14.48 27.6563 -3.54
216 1 13.6087 18.1 27.6563 -3.54
253 1 5.70686 0 14.4867 -3.54
254 1 5.70686 3.62 14.4867 -3.54
255 1 5.70686 7.24 14.4867 -3.54
256 1 5.70686 10.86 14.4867 -3.54
257 1 5.70686 14.48 14.4867 -3.54
258 1 5.70686 18.1 14.4867 -3.54
295 1 5.70686 0 29.4123 -3.54
296 1 5.70686 3.62 29.4123 -3.54
297 1 5.70686 7.24 29.4123 -3.54
298 1 5.70686 10.86 29.4123 -3.54
299 1 5.70686 14.48 29.4123 -3.54
300 1 5.70686 18.1 29.4123 -3.54
337 1 9.65777 1.81 13.6087 -3.54
338 1 9.65777 5.43 13.6087 -3.54
339 1 9.65777 9.05 13.6087 -3.54
340 1 9.65777 12.67 13.6087 -3.54
341 1 9.65777 16.29 13.6087 -3.54
342 1 9.65777 19.91 13.6087 -3.54
379 1 9.65777 1.81 28.5343 -3.54
380 1 9.65777 5.43 28.5343 -3.54
381 1 9.65777 9.05 28.5343 -3.54
382 1 9.65777 12.67 28.5343 -3.54
383 1 9.65777 16.29 28.5343 -3.54
384 1 9.65777 19.91 28.5343 -3.54
421 1 7.90181 0 13.1697 -3.54
422 1 7.90181 3.62 13.1697 -3.54
423 1 7.90181 7.24 13.1697 -3.54
424 1 7.90181 10.86 13.1697 -3.54
425 1 7.90181 14.48 13.1697 -3.54
426 1 7.90181 18.1 13.1697 -3.54
463 1 7.90181 0 28.0953 -3.54
464 1 7.90181 3.62 28.0953 -3.54
465 1 7.90181 7.24 28.0953 -3.54
466 1 7.90181 10.86 28.0953 -3.54
467 1 7.90181 14.48 28.0953 -3.54
468 1 7.90181 18.1 28.0953 -3.54
505 1 11.8527 1.81 12.2917 -3.54
506 1 11.8527 5.43 12.2917 -3.54
507 1 11.8527 9.05 12.2917 -3.54
508 1 11.8527 12.67 12.2917 -3.54
509 1 11.8527 16.29 12.2917 -3.54
510 1 11.8527 19.91 12.2917 -3.54
547 1 11.8527 1.81 27.2173 -3.54
548 1 11.8527 5.43 27.2173 -3.54
549 1 11.8527 9.05 27.2173 -3.54
550 1 11.8527 12.67 27.2173 -3.54
551 1 11.8527 16.29 27.2173 -3.54
552 1 11.8527 19.91 27.2173 -3.54
589 1 10.0968 0 11.8527 -3.54
590 1 10.0968 3.62 11.8527 -3.54
591 1 10.0968 7.24 11.8527 -3.54
592 1 10.0968 10.86 11.8527 -3.54
593 1 10.0968 14.48 11.8527 -3.54
594 1 10.0968 18.1 11.8527 -3.54
631 1 10.0968 0 26.7784 -3.54
632 1 10.0968 3.62 26.7784 -3.54
633 1 10.0968 7.24 26.7784 -3.54
634 1 10.0968 10.86 26.7784 -3.54
635 1 10.0968 14.48 26.7784 -3.54
636 1 10.0968 18.1 26.7784 -3.54
673 1 14.0477 1.81 10.9747 -3.54
674 1 14.0477 5.43 10.9747 -3.54
675 1 14.0477 9.05 10.9747 -3.54
676 1 14.0477 12.67 10.9747 -3.54
677 1 14.0477 16.29 10.9747 -3.54
678 1 14.0477 19.91 10.9747 -3.54
715 1 14.0477 1.81 25.9004 -3.54
716 1 14.0477 5.43 25.9004 -3.54
717 1 14.0477 9.05 25.9004 -3.54
718 1 14.0477 12.67 25.9004 -3.54
719 1 14.0477 16.29 25.9004 -3.54
720 1 14.0477 19.91 25.9004 -3.54
757 1 12.2917 0 10.5357 -3.54
758 1 12.2917 3.62 10.5357 -3.54
759 1 12.2917 7.24 10.5357 -3.54
760 1 12.2917 10.86 10.5357 -3.54
761 1 12.2917 14.48 10.5357 -3.54
762 1 12.2917 18.1 10.5357 -3.54
799 1 12.2917 0 25.4614 -3.54
800 1 12.2917 3.62 25.4614 -3.54
801 1 12.2917 7.24 25.4614 -3.54
802 1 12.2917 10.86 25.4614 -3.54
803 1 12.2917 14.48 25.4614 -3.54
804 1 12.2917 18.1 25.4614 -3.54
841 1 14.4867 0 9.21878 -3.54
842 1 14.4867 3.62 9.21878 -3.54
843 1 14.4867 7.24 9.21878 -3.54
844 1 14.4867 10.86 9.21878 -3.54
845 1 14.4867 14.48 9.21878 -3.54
846 1 14.4867 18.1 9.21878 -3.54
883 1 14.4867 0 24.1444 -3.54
884 1 14.4867 3.62 24.1444 -3.54
885 1 14.4867 7.24 24.1444 -3.54
886 1 14.4867 10.86 24.1444 -3.54
887 1 14.4867 14.48 24.1444 -3.54
888 1 14.4867 18.1 24.1444 -3.54
925 1 3.95091 1.81 14.0477 -3.54
926 1 3.95091 5.43 14.0477 -3.54
927 1 3.95091 9.05 14.0477 -3.54
928 1 3.95091 12.67 14.0477 -3.54
929 1 3.95091 16.29 14.0477 -3.54
930 1 3.95091 19.91 14.0477 -3.54
967 1 3.95091 1.81 28.9733 -3.54
968 1 3.95091 5.43 28.9733 -3.54
969 1 3.95091 9.05 28.9733 -3.54
970 1 3.95091 12.67 28.9733 -3.54
971 1 3.95091 16.29 28.9733 -3.54
972 1 3.95091 19.91 28.9733 -3.54
1009 1 2.19495 0 13.6087 -3.54051
1010 1 2.19495 3.62 13.6087 -3.54051
1011 1 2.19495 7.24 13.6087 -3.54051
1012 1 2.19495 10.86 13.6087 -3.54051
1013 1 2.19495 14.48 13.6087 -3.54051
1014 1 2.19495 18.1 13.6087 -3.54051
1015 1 17.1206 0 13.6087 -3.54
1016 1 17.1206 3.62 13.6087 -3.54
1017 1 17.1206 7.24 13.6087 -3.54
1018 1 17.1206 10.86 13.6087 -3.54
1019 1 17.1206 14.48 13.6087 -3.54
1020 1 17.1206 18.1 13.6087 -3.54
1051 1 2.19495 0 28.5343 -3.54051
1052 1 2.19495 3.62 28.5343 -3.54051
1053 1 2.19495 7.24 28.5343 -3.54051
1054 1 2.19495 10.86 28.5343 -3.54051
1055 1 2.19495 14.48 28.5343 -3.54051
1056 1 2.19495 18.1 28.5343 -3.54051
1057 1 17.1206 0 28.5343 -3.54
1058 1 17.1206 3.62 28.5343 -3.54
1059 1 17.1206 7.24 28.5343 -3.54
1060 1 17.1206 10.86 28.5343 -3.54
1061 1 17.1206 14.48 28.5343 -3.54
1062 1 17.1206 18.1 28.5343 -3.54
1093 1 6.14585 1.81 12.7307 -3.54
1094 1 6.14585 5.43 12.7307 -3.54
1095 1 6.14585 9.05 12.7307 -3.54
1096 1 6.14585 12.67 12.7307 -3.54
1097 1 6.14585 16.29 12.7307 -3.54
1098 1 6.14585 19.91 12.7307 -3.54
1135 1 6.14585 1.81 27.6563 -3.54
1136 1 6.14585 5.43 27.6563 -3.54
1137 1 6.14585 9.05 27.6563 -3.54
1138 1 6.14585 12.67 27.6563 -3.54
1139 1 6.14585 16.29 27.6563 -3.54
1140 1 6.14585 19.91 27.6563 -3.54
1177 1 4.38989 0 12.2917 -3.54
1178 1 4.38989 3.62 12.2917 -3.54
1179 1 4.38989 7.24 12.2917 -3.54
1180 1 4.38989 10.86 12.2917 -3.54
1181 1 4.38989 14.48 12.2917 -3.54
1182 1 4.38989 18.1 12.2917 -3.54
1219 1 4.38989 0 27.2173 -3.54
1220 1 4.38989 3.62 27.2173 -3.54
1221 1 4.38989 7.24 27.2173 -3.54
1222 1 4.38989 10.86 27.2173 -3.54
1223 1 4.38989 14.48 27.2173 -3.54
1224 1 4.38989 18.1 27.2173 -3.54
1261 1 8.3408 1.81 11.4137 -3.54
1262 1 8.3408 5.43 11.4137 -3.54
1263 1 8.3408 9.05 11.4137 -3.54
1264 1 8.3408 12.67 11.4137 -3.54
1265 1 8.3408 16.29 11.4137 -3.54
1266 1 8.3408 19.91 11.4137 -3.54
1303 1 8.3408 1.81 26.3394 -3.54
1304 1 8.3408 5.43 26.3394 -3.54
1305 1 8.3408 9.05 26.3394 -3.54
1306 1 8.3408 12.67 26.3394 -3.54
1307 1 8.3408 16.29 26.3394 -3.54
1308 1 8.3408 19.91 26.3394 -3.54
1345 1 6.58484 0 10.9747 -3.54
1346 1 6.58484 3.62 10.9747 -3.54
1347 1 6.58484 7.24 10.9747 -3.54
1348 1 6.58484 10.86 10.9747 -3.54
1349 1 6.58484 14.48 10.9747 -3.54
1350 1 6.58484 18.1 10.9747 -3.54
1387 1 6.58484 0 25.9004 -3.54
1388 1 6.58484 3.62 25.9004 -3.54
1389 1 6.58484 7.24 25.9004 -3.54
1390 1 6.58484 10.86 25.9004 -3.54
1391 1 6.58484 14.48 25.9004 -3.54
1392 1 6.58484 18.1 25.9004 -3.54
1429 1 10.5357 1.81 10.0968 -3.54
1430 1 10.5357 5.43 10.0968 -3.54
1431 1 10.5357 9.05 10.0968 -3.54
1432 1 10.5357 12.67 10.0968 -3.54
1433 1 10.5357 16.29 10.0968 -3.54
1434 1 10.5357 19.91 10.0968 -3.54
1471 1 10.5357 1.81 25.0224 -3.54
1472 1 10.5357 5.43 25.0224 -3.54
1473 1 10.5357 9.05 25.0224 -3.54
1474 1 10.5357 12.67 25.0224 -3.54
1475 1 10.5357 16.29 25.0224 -3.54
1476 1 10.5357 19.91 25.0224 -3.54
1513 1 8.77979 0 9.65777 -3.54
1514 1 8.77979 3.62 9.65777 -3.54
1515 1 8.77979 7.24 9.65777 -3.54
1516 1 8.77979 10.86 9.65777 -3.54
1517 1 8.77979 14.48 9.65777 -3.54
1518 1 8.77979 18.1 9.65777 -3.54
1555 1 8.77979 0 24.5834 -3.54
1556 1 8.77979 3.62 24.5834 -3.54
1557 1 8.77979 7.24 24.5834 -3.54
1558 1 8.77979 10.86 24.5834 -3.54
1559 1 8.77979 14.48 24.5834 -3.54
1560 1 8.77979 18.1 24.5834 -3.54
1597 1 12.7307 1.81 8.77979 -3.54
1598 1 12.7307 5.43 8.77979 -3.54
1599 1 12.7307 9.05 8.77979 -3.54
1600 1 12.7307 12.67 8.77979 -3.54
1601 1 12.7307 16.29 8.77979 -3.54
1602 1 12.7307 19.91 8.77979 -3.54
1639 1 12.7307 1.81 23.7054 -3.54
1640 1 12.7307 5.43 23.7054 -3.54
1641 1 12.7307 9.05 23.7054 -3.54
1642 1 12.7307 12.67 23.7054 -3.54
1643 1 12.7307 16.29 23.7054 -3.54
1644 1 12.7307 19.91 23.7054 -3.54
1681 1 10.9747 0 8.3408 -3.54
1682 1 10.9747 3.62 8.3408 -3.54
1683 1 10.9747 7.24 8.3408 -3.54
1684 1 10.9747 10.86 8.3408 -3.54
1685 1 10.9747 14.48 8.3408 -3.54
1686 1 10.9747 18.1 8.3408 -3.54
1723 1 10.9747 0 23.2664 -3.54
1724 1 10.9747 3.62 23.2664 -3.54
1725 1 10.9747 7.24 23.2664 -3.54
1726 1 10.9747 10.86 23.2664 -3.54
1727 1 10.9747 14.48 23.2664 -3.54
1728 1 10.9747 18.1 23.2664 -3.54
1765 1 13.1697 0 7.02383 -3.54
1766 1 13.1697 3.62 7.02383 -3.54
1767 1 13.1697 7.24 7.02383 -3.54
1768 1 13.1697 10.86 7.02383 -3.54
1769 1 13.1697 14.48 7.02383 -3.54
1770 1 13.1697 18.1 7.02383 -3.54
1807 1 13.1697 0 21.9495 -3.54
1808 1 13.1697 3.62 21.9495 -3.54
1809 1 13.1697 7.24 21.9495 -3.54
1810 1 13.1697 10.86 21.9495 -3.54
1811 1 13.1697 14.48 21.9495 -3.54
1812 1 13.1697 18.1 21.9495 -3.54
1849 1 0.438989 1.81 13.1697 -3.00023
1850 1 0.438989 5.43 13.1697 -3.00023
1851 1 0.438989 9.05 13.1697 -3.00023
1852 1 0.438989 12.67 13.1697 -3.00023
1853 1 0.438989 16.29 13.1697 -3.00023
1854 1 0.438989 19.91 13.1697 -3.00023
1855 1 15.3646 1.81 13.1697 -3.54
1856 1 15.3646 5.43 13.1697 -3.54
1857 1 15.3646 9.05 13.1697 -3.54
1858 1 15.3646 12.67 13.1697 -3.54
1859 1 15.3646 16.29 13.1697 -3.54
1860 1 15.3646 19.91 13.1697 -3.54
1891 1 0.438989 1.81 28.0953 -3.00023
1892 1 0.438989 5.43 28.0953 -3.00023
1893 1 0.438989 9.05 28.0953 -3.00023
1894 1 0.438989 12.67 28.0953 -3.00023
1895 1 0.438989 16.29 28.0953 -3.00023
1896 1 0.438989 19.91 28.0953 -3.00023
1897 1 15.3646 1.81 28.0953 -3.54
1898 1 15.3646 5.43 28.0953 -3.54
1899 1 15.3646 9.05 28.0953 -3.54
1900 1 15.3646 12.67 28.0953 -3.54
1901 1 15.3646 16.29 28.0953 -3.54
1902 1 15.3646 19.91 28.0953 -3.54
1933 1 2.63394 1.81 11.8527 -3.54051
1934 1 2.63394 5.43 11.8527 -3.54051
1935 1 2.63394 9.05 11.8527 -3.54051
1936 1 2.63394 12.67 11.8527 -3.54051
1937 1 2.63394 16.29 11.8527 -3.54051
1938 1 2.63394 19.91 11.8527 -3.54051
1975 1 2.63394 1.81 26.7784 -3.54051
1976 1 2.63394 5.43 26.7784 -3.54051
1977 1 2.63394 9.05 26.7784 -3.54051
1978 1 2.63394 12.67 26.7784 -3.54051
1979 1 2.63394 16.29 26.7784 -3.54051
1980 1 2.63394 19.91 26.7784 -3.54051
2017 1 0.877979 0 11.4137 -2.99963
2018 1 0.877979 3.62 11.4137 -2.99963
2019 1 0.877979 7.24 11.4137 -2.99963
2020 1 0.877979 10.86 11.4137 -2.99963
2021 1 0.877979 14.48 11.4137 -2.99963
2022 1 0.877979 18.1 11.4137 -2.99963
2023 1 15.8036 0 11.4137 -3.54
2024 1 15.8036 3.62 11.4137 -3.54
2025 1 15.8036 7.24 11.4137 -3.54
2026 1 15.8036 10.86 11.4137 -3.54
2027 1 15.8036 14.48 11.4137 -3.54
2028 1 15.8036 18.1 11.4137 -3.54
2059 1 0.877979 0 26.3394 -2.99963
2060 1 0.877979 3.62 26.3394 -2.99963
2061 1 0.877979 7.24 26.3394 -2.99963
2062 1 0.877979 10.86 26.3394 -2.99963
2063 1 0.877979 14.48 26.3394 -2.99963
2064 1 0.877979 18.1 26.3394 -2.99963
2065 1 15.8036 0 26.3394 -3.54
2066 1 15.8036 3.62 26.3394 -3.54
2067 1 15.8036 7.24 26.3394 -3.54
2068 1 15.8036 10.86 26.3394 -3.54
2069 1 15.8036 14.48 26.3394 -3.54
2070 1 15.8036 18.1 26.3394 -3.54
2101 1 4.82888 1.81 10.5357 -3.54
2102 1 4.82888 5.43 10.5357 -3.54
2103 1 4.82888 9.05 10.5357 -3.54
2104 1 4.82888 12.67 10.5357 -3.54
2105 1 4.82888 16.29 10.5357 -3.54
2106 1 4.82888 19.91 10.5357 -3.54
2143 1 4.82888 1.81 25.4614 -3.54
2144 1 4.82888 5.43 25.4614 -3.54
2145 1 4.82888 9.05 25.4614 -3.54
2146 1 4.82888 12.67 25.4614 -3.54
2147 1 4.82888 16.29 25.4614 -3.54
2148 1 4.82888 19.91 25.4614 -3.54
2185 1 3.07293 0 10.0968 -3.54051
2186 1 3.07293 3.62 10.0968 -3.54051
2187 1 3.07293 7.24 10.0968 -3.54051
2188 1 3.07293 10.86 10.0968 -3.54051
2189 1 3.07293 14.48 10.0968 -3.54051
2190 1 3.07293 18.1 10.0968 -3.54051
2227 1 3.07293 0 25.0224 -3.54051
2228 1 3.07293 3.62 25.0224 -3.54051
2229 1 3.07293 7.24 25.0224 -3.54051
2230 1 3.07293 10.86 25.0224 -3.54051
2231 1 3.07293 14.48 25.0224 -3.54051
2232 1 3.07293 18.1 25.0224 -3.54051
2269 1 7.02383 1.81 9.21878 -3.54
2270 1 7.02383 5.43 9.21878 -3.54
2271 1 7.02383 9.05 9.21878 -3.54
2272 1 7.02383 12.67 9.21878 -3.54
2273 1 7.02383 16.29 9.21878 -3.54
2274 1 7.02383 19.91 9.21878 -3.54
2311 1 7.02383 1.81 24.1444 -3.54
2312 1 7.02383 5.43 24.1444 -3.54
2313 1 7.02383 9.05 24.1444 -3.54
2314 1 7.02383 12.67 24.1444 -3.54
2315 1 7.02383 16.29 24.1444 -3.54
2316 1 7.02383 19.91 24.1444 -3.54
2353 1 5.26787 0 8.77979 -3.54
2354 1 5.26787 3.62 8.77979 -3.54
2355 1 5.26787 7.24 8.77979 -3.54
2356 1 5.26787 10.86 8.77979 -3.54
2357 1 5.26787 14.48 8.77979 -3.54
2358 1 5.26787 18.1 8.77979 -3.54
2395 1 5.26787 0 23.7054 -3.54
2396 1 5.26787 3.62 23.7054 -3.54
2397 1 5.26787 7.24 23.7054 -3.54
2398 1 5.26787 10.86 23.7054 -3.54
2399 1 5.26787 14.48 23.7054 -3.54
2400 1 5.26787 18.1 23.7054 -3.54
2437 1 9.21878 1.81 7.90181 -3.54
2438 1 9.21878 5.43 7.90181 -3.54
2439 1 9.21878 9.05 7.90181 -3.54
2440 1 9.21878 12.67 7.90181 -3.54
2441 1 9.21878 16.29 7.90181 -3.54
2442 1 9.21878 19.91 7.90181 -3.54
2479 1 9.21878 1.81 22.8275 -3.54
2480 1 9.21878 5.43 22.8275 -3.54
2481 1 9.21878 9.05 22.8275 -3.54
2482 1 9.21878 12.67 22.8275 -3.54
2483 1 9.21878 16.29 22.8275 -3.54
2484 1 9.21878 19.91 22.8275 -3.54
2521 1 7.46282 0 7.46282 -3.54
2522 1 7.46282 3.62 7.46282 -3.54
2523 1 7.46282 7.24 7.46282 -3.54
2524 1 7.46282 10.86 7.46282 -3.54
2525 1 7.46282 14.48 7.46282 -3.54
2526 1 7.46282 18.1 7.46282 -3.54
2563 1 7.46282 0 22.3885 -3.54
2564 1 7.46282 3.62 22.3885 -3.54
2565 1 7.46282 7.24 22.3885 -3.54
2566 1 7.46282 10.86 22.3885 -3.54
2567 1 7.46282 14.48 22.3885 -3.54
2568 1 7.46282 18.1 22.3885 -3.54
2605 1 11.4137 1.81 6.58484 -3.54
2606 1 11.4137 5.43 6.58484 -3.54
2607 1 11.4137 9.05 6.58484 -3.54
2608 1 11.4137 12.67 6.58484 -3.54
2609 1 11.4137 16.29 6.58484 -3.54
2610 1 11.4137 19.91 6.58484 -3.54
2647 1 11.4137 1.81 21.5105 -3.54
2648 1 11.4137 5.43 21.5105 -3.54
2649 1 11.4137 9.05 21.5105 -3.54
2650 1 11.4137 12.67 21.5105 -3.54
2651 1 11.4137 16.29 21.5105 -3.54
2652 1 11.4137 19.91 21.5105 -3.54
2689 1 9.65777 0 6.14585 -3.54
2690 1 9.65777 3.62 6.14585 -3.54
2691 1 9.65777 7.24 6.14585 -3.54
2692 1 9.65777 10.86 6.14585 -3.54
2693 1 9.65777 14.48 6.14585 -3.54
2694 1 9.65777 18.1 6.14585 -3.54
2731 1 9.65777 0 21.0715 -3.54
2732 1 9.65777 3.62 21.0715 -3.54
2733 1 9.65777 7.24 21.0715 -3.54
2734 1 9.65777 10.86 21.0715 -3.54
2735 1 9.65777 14.48 21.0715 -3.54
2736 1 9.65777 18.1 21.0715 -3.54
2773 1 13.6087 1.81 5.26787 -3.54
2774 1 13.6087 5.43 5.26787 -3.54
2775 1 13.6087 9.05 5.26787 -3.54
2776 1 13.6087 12.67 5.26787 -3.54
2777 1 13.6087 16.29 5.26787 -3.54
2778 1 13.6087 19.91 5.26787 -3.54
2815 1 13.6087 1.81 20.1935 -3.54
2816 1 13.6087 5.43 20.1935 -3.54
2817 1 13.6087 9.05 20.1935 -3.54
2818 1 13.6087 12.67 20.1935 -3.54
2819 1 13.6087 16.29 20.1935 -3.54
2820 1 13.6087 19.91 20.1935 -3.54
2857 1 11.8527 0 4.82888 -3.54
2858 1 11.8527 3.62 4.82888 -3.54
2859 1 11.8527 7.24 4.82888 -3.54
2860 1 11.8527 10.86 4.82888 -3.54
2861 1 11.8527 14.48 4.82888 -3.54
2862 1 11.8527 18.1 4.82888 -3.54
2899 1 11.8527 0 19.7545 -3.54
2900 1 11.8527 3.62 19.7545 -3.54
2901 1 11.8527 7.24 19.7545 -3.54
2902 1 11.8527 10.86 19.7545 -3.54
2903 1 11.8527 14.48 19.7545 -3.54
2904 1 11.8527 18.1 19.7545 -3.54
2941 1 14.0477 0 3.51192 -3.54
2942 1 14.0477 3.62 3.51192 -3.54
2943 1 14.0477 7.24 3.51192 -3.54
2944 1 14.0477 10.86 3.51192 -3.54
2945 1 14.0477 14.48 3.51192 -3.54
2946 1 14.0477 18.1 3.51192 -3.54
2983 1 14.0477 0 18.4376 -3.54
2984 1 14.0477 3.62 18.4376 -3.54
2985 1 14.0477 7.24 18.4376 -3.54
2986 1 14.0477 10.86 18.4376 -3.54
2987 1 14.0477 14.48 18.4376 -3.54
2988 1 14.0477 18.1 18.4376 -3.54
3025 1 1.31697 1.81 9.65777 -3.16886
3026 1 1.31697 5.43 9.65777 -3.16886
3027 1 1.31697 9.05 9.65777 -3.16886
3028 1 1.31697 12.67 9.65777 -3.16886
3029 1 1.31697 16.29 9.65777 -3.16886
3030 1 1.31697 19.91 9.65777 -3.16886
3031 1 16.2426 1.81 9.65777 -3.54
3032 1 16.2426 5.43 9.65777 -3.54
3033 1 16.2426 9.05 9.65777 -3.54
3034 1 16.2426 12.67 9.65777 -3.54
3035 1 16.2426 16.29 9.65777 -3.54
3036 1 16.2426 19.91 9.65777 -3.54
3067 1 1.31697 1.81 24.5834 -3.16886
3068 1 1.31697 5.43 24.5834 -3.16886
3069 1 1.31697 9.05 24.5834 -3.16886
3070 1 1.31697 12.67 24.5834 -3.16886
3071 1 1.31697 16.29 24.5834 -3.16886
3072 1 1.31697 19.91 24.5834 -3.16886
3073 1 16.2426 1.81 24.5834 -3.54
3074 1 16.2426 5.43 24.5834 -3.54
3075 1 16.2426 9.05 24.5834 -3.54
3076 1 16.2426 12.67 24.5834 -3.54
3077 1 16.2426 16.29 24.5834 -3.54
3078 1 16.2426 19.91 24.5834 -3.54
3109 1 3.51192 1.81 8.3408 -3.54
3110 1 3.51192 5.43 8.3408 -3.54
3111 1 3.51192 9.05 8.3408 -3.54
3112 1 3.51192 12.67 8.3408 -3.54
3113 1 3.51192 16.29 8.3408 -3.54
3114 1 3.51192 19.91 8.3408 -3.54
3151 1 3.51192 1.81 23.2664 -3.54
3152 1 3.51192 5.43 23.2664 -3.54
3153 1 3.51192 9.05 23.2664 -3.54
3154 1 3.51192 12.67 23.2664 -3.54
3155 1 3.51192 16.29 23.2664 -3.54
3156 1 3.51192 19.91 23.2664 -3.54
3193 1 1.75596 0 7.90181 -3.43896
3194 1 1.75596 3.62 7.90181 -3.43896
3195 1 1.75596 7.24 7.90181 -3.43896
3196 1 1.75596 10.86 7.90181 -3.43896
3197 1 1.75596 14.48 7.90181 -3.43896
3198 1 1.75596 18.1 7.90181 -3.43896
3199 1 16.6816 0 7.90181 -3.54
3200 1 16.6816 3.62 7.90181 -3.54
3201 1 16.6816 7.24 7.90181 -3.54
3202 1 16.6816 10.86 7.90181 -3.54
3203 1 16.6816 14.48 7.90181 -3.54
3204 1 16.6816 18.1 7.90181 -3.54
3235 1 1.75596 0 22.8275 -3.43896
3236 1 1.75596 3.62 22.8275 -3.43896
3237 1 1.75596 7.24 22.8275 -3.43896
3238 1 1.75596 10.86 22.8275 -3.43896
3239 1 1.75596 14.48 22.8275 -3.43896
3240 1 1.75596 18.1 22.8275 -3.43896
3241 1 16.6816 0 22.8275 -3.54
3242 1 16.6816 3.62 22.8275 -3.54
3243 1 16.6816 7.24 22.8275 -3.54
3244 1 16.6816 10.86 22.8275 -3.54
3245 1 16.6816 14.48 22.8275 -3.54
3246 1 16.6816 18.1 22.8275 -3.54
3277 1 5.70686 1.81 7.02383 -3.54
3278 1 5.70686 5.43 7.02383 -3.54
3279 1 5.70686 9.05 7.02383 -3.54
3280 1 5.70686 12.67 7.02383 -3.54
3281 1 5.70686 16.29 7.02383 -3.54
3282 1 5.70686 19.91 7.02383 -3.54
3319 1 5.70686 1.81 21.9495 -3.54
3320 1 5.70686 5.43 21.9495 -3.54
3321 1 5.70686 9.05 21.9495 -3.54
3322 1 5.70686 12.67 21.9495 -3.54
3323 1 5.70686 16.29 21.9495 -3.54
3324 1 5.70686 19.91 21.9495 -3.54
3361 1 3.95091 0 6.58484 -3.54
3362 1 3.95091 3.62 6.58484 -3.54
3363 1 3.95091 7.24 6.58484 -3.54
3364 1 3.95091 10.86 6.58484 -3.54
3365 1 3.95091 14.48 6.58484 -3.54
3366 1 3.95091 18.1 6.58484 -3.54
3403 1 3.95091 0 21.5105 -3.54
3404 1 3.95091 3.62 21.5105 -3.54
3405 1 3.95091 7.24 21.5105 -3.54
3406 1 3.95091 10.86 21.5105 -3.54
3407 1 3.95091 14.48 21.5105 -3.54
3408 1 3.95091 18.1 21.5105 -3.54
3445 1 7.90181 1.81 5.70686 -3.54
3446 1 7.90181 5.43 5.70686 -3.54
3447 1 7.90181 9.05 5.70686 -3.54
3448 1 7.90181 12.67 5.70686 -3.54
3449 1 7.90181 16.29 5.70686 -3.54
3450 1 7.90181 19.91 5.70686 -3.54
3487 1 7.90181 1.81 20.6325 -3.54
3488 1 7.90181 5.43 20.6325 -3.54
3489 1 7.90181 9.05 20.6325 -3.54
3490 1 7.90181 12.67 20.6325 -3.54
3491 1 7.90181 16.29 20.6325 -3.54
3492 1 7.90181 19.91 20.6325 -3.54
3529 1 6.14585 0 5.26787 -3.54
3530 1 6.14585 3.62 5.26787 -3.54
3531 1 6.14585 7.24 5.26787 -3.54
3532 1 6.14585 10.86 5.26787 -3.54
3533 1 6.14585 14.48 5.26787 -3.54
3534 1 6.14585 18.1 5.26787 -3.54
3571 1 6.14585 0 20.1935 -3.54
3572 1 6.14585 3.62 20.1935 -3.54
3573 1 6.14585 7.24 20.1935 -3.54
3574 1 6.14585 10.86 20.1935 -3.54
3575 1 6.14585 14.48 20.1935 -3.54
3576 1 6.14585 18.1 20.1935 -3.54
3613 1 10.0968 1.81 4.38989 -3.54
3614 1 10.0968 5.43 4.38989 -3.54
3615 1 10.0968 9.05 4.38989 -3.54
3616 1 10.0968 12.67 4.38989 -3.54
3617 1 10.0968 16.29 4.38989 -3.54
3618 1 10.0968 19.91 4.38989 -3.54
3655 1 10.0968 1.81 19.3155 -3.54
3656 1 10.0968 5.43 19.3155 -3.54
3657 1 10.0968 9.05 19.3155 -3.54
3658 1 10.0968 12.67 19.3155 -3.54
3659 1 10.0968 16.29 19.3155 -3.54
3660 1 10.0968 19.91 19.3155 -3.54
3697 1 8.3408 0 3.95091 -3.54
3698 1 8.3408 3.62 3.95091 -3.54
3699 1 8.3408 7.24 3.95091 -3.54
3700 1 8.3408 10.86 3.95091 -3.54
3701 1 8.3408 14.48 3.95091 -3.54
3702 1 8.3408 18.1 3.95091 -3.54
3739 1 8.3408 0 18.8765 -3.54
3740 1 8.3408 3.62 18.8765 -3.54
3741 1 8.3408 7.24 18.8765 -3.54
3742 1 8.3408 10.86 18.8765 -3.54
3743 1 8.3408 14.48 18.8765 -3.54
3744 1 8.3408 18.1 18.8765 -3.54
3781 1 12.2917 1.81 3.07293 -3.54
3782 1 12.2917 5.43 3.07293 -3.54
3783 1 12.2917 9.05 3.07293 -3.54
3784 1 12.2917 12.67 3.07293 -3.54
3785 1 12.2917 16.29 3.07293 -3.54
3786 1 12.2917 19.91 3.07293 -3.54
3823 1 12.2917 1.81 17.9986 -3.54
3824 1 12.2917 5.43 17.9986 -3.54
3825 1 12.2917 9.05 17.9986 -3.54
3826 1 12.2917 12.67 17.9986 -3.54
3827 1 12.2917 16.29 17.9986 -3.54
3828 1 12.2917 19.91 17.9986 -3.54
3865 1 10.5357 0 2.63394 -3.54
3866 1 10.5357 3.62 2.63394 -3.54
3867 1 10.5357 7.24 2.63394 -3.54
3868 1 10.5357 10.86 2.63394 -3.54
3869 1 10.5357 14.48 2.63394 -3.54
3870 1 10.5357 18.1 2.63394 -3.54
3907 1 10.5357 0 17.5596 -3.54
3908 1 10.5357 3.62 17.5596 -3.54
3909 1 10.5357 7.24 17.5596 -3.54
3910 1 10.5357 10.86 17.5596 -3.54
3911 1 10.5357 14.48 17.5596 -3.54
3912 1 10.5357 18.1 17.5596 -3.54
3949 1 14.4867 1.81 1.75596 -3.54
3950 1 14.4867 5.43 1.75596 -3.54
3951 1 14.4867 9.05 1.75596 -3.54
3952 1 14.4867 12.67 1.75596 -3.54
3953 1 14.4867 16.29 1.75596 -3.54
3954 1 14.4867 19.91 1.75596 -3.54
3991 1 14.4867 1.81 16.6816 -3.54
3992 1 14.4867 5.43 16.6816 -3.54
3993 1 14.4867 9.05 16.6816 -3.54
3994 1 14.4867 12.67 16.6816 -3.54
3995 1 14.4867 16.29 16.6816 -3.54
3996 1 14.4867 19.91 16.6816 -3.54
4033 1 12.7307 0 1.31697 -3.54
4034 1 12.7307 3.62 1.31697 -3.54
4035 1 12.7307 7.24 1.31697 -3.54
4036 1 12.7307 10.86 1.31697 -3.54
4037 1 12.7307 14.48 1.31697 -3.54
4038 1 12.7307 18.1 1.31697 -3.54
4075 1 12.7307 0 16.2426 -3.54
4076 1 12.7307 3.62 16.2426 -3.54
4077 1 12.7307 7.24 16.2426 -3.54
4078 1 12.7307 10.86 16.2426 -3.54
4079 1 12.7307 14.48 16.2426 -3.54
4080 1 12.7307 18.1 16.2426 -3.54
4117 1 6.93889e-18 1.81 7.46282 -2.66905
4118 1 6.93889e-18 5.43 7.46282 -2.66905
4119 1 6.93889e-18 9.05 7.46282 -2.66905
4120 1 6.93889e-18 12.67 7.46282 -2.66905
4121 1 6.93889e-18 16.29 7.46282 -2.66905
4122 1 6.93889e-18 19.91 7.46282 -2.66905
4123 1 14.9256 1.81 7.46282 -3.54
4124 1 14.9256 5.43 7.46282 -3.54
4125 1 14.9256 9.05 7.46282 -3.54
4126 1 14.9256 12.67 7.46282 -3.54
4127 1 14.9256 16.29 7.46282 -3.54
4128 1 14.9256 19.91 7.46282 -3.54
4159 1 6.93889e-18 1.81 22.3885 -2.66905
4160 1 6.93889e-18 5.43 22.3885 -2.66905
4161 1 6.93889e-18 9.05 22.3885 -2.66905
4162 1 6.93889e-18 12.67 22.3885 -2.66905
4163 1 6.93889e-18 16.29 22.3885 -2.66905
4164 1 6.93889e-18 19.91 22.3885 -2.66905
4165 1 14.9256 1.81 22.3885 -3.54
4166 1 14.9256 5.43 22.3885 -3.54
4167 1 14.9256 9.05 22.3885 -3.54
4168 1 14.9256 12.67 22.3885 -3.54
4169 1 14.9256 16.29 22.3885 -3.54
4170 1 14.9256 19.91 22.3885 -3.54
4201 1 2.19495 1.81 6.14585 -3.54051
4202 1 2.19495 5.43 6.14585 -3.54051
4203 1 2.19495 9.05 6.14585 -3.54051
4204 1 2.19495 12.67 6.14585 -3.54051
4205 1 2.19495 16.29 6.14585 -3.54051
4206 1 2.19495 19.91 6.14585 -3.54051
4207 1 17.1206 1.81 6.14585 -3.54
4208 1 17.1206 5.43 6.14585 -3.54
4209 1 17.1206 9.05 6.14585 -3.54
4210 1 17.1206 12.67 6.14585 -3.54
4211 1 17.1206 16.29 6.14585 -3.54
4212 1 17.1206 19.91 6.14585 -3.54
4243 1 2.19495 1.81 21.0715 -3.54051
4244 1 2.19495 5.43 21.0715 -3.54051
4245 1 2.19495 9.05 21.0715 -3.54051
4246 1 2.19495 12.67 21.0715 -3.54051
4247 1 2.19495 16.29 21.0715 -3.54051
4248 1 2.19495 19.91 21.0715 -3.54051
4249 1 17.1206 1.81 21.0715 -3.54
4250 1 17.1206 5.43 21.0715 -3.54
4251 1 17.1206 9.05 21.0715 -3.54
4252 1 17.1206 12.67 21.0715 -3.54
4253 1 17.1206 16.29 21.0715 -3.54
4254 1 17.1206 19.91 21.0715 -3.54
4285 1 0.438989 0 5.70686 -3.00023
4286 1 0.438989 3.62 5.70686 -3.00023
4287 1 0.438989 7.24 5.70686 -3.00023
4288 1 0.438989 10.86 5.70686 -3.00023
4289 1 0.438989 14.48 5.70686 -3.00023
4290 1 0.438989 18.1 5.70686 -3.00023
4291 1 15.3646 0 5.70686 -3.54
4292 1 15.3646 3.62 5.70686 -3.54
4293 1 15.3646 7.24 5.70686 -3.54
4294 1 15.3646 10.86 5.70686 -3.54
4295 1 15.3646 14.48 5.70686 -3.54
4296 1 15.3646 18.1 5.70686 -3.54
4327 1 0.438989 0 20.6325 -3.00023
4328 1 0.438989 3.62 20.6325 -3.00023
4329 1 0.438989 7.24 20.6325 -3.00023
4330 1 0.438989 10.86 20.6325 -3.00023
4331 1 0.438989 14.48 20.6325 -3.00023
4332 1 0.438989 18.1 20.6325 -3.00023
4333 1 15.3646 0 20.6325 -3.54
4334 1 15.3646 3.62 20.6325 -3.54
4335 1 15.3646 7.24 20.6325 -3.54
4336 1 15.3646 10.86 20.6325 -3.54
4337 1 15.3646 14.48 20.6325 -3.54
4338 1 15.3646 18.1 20.6325 -3.54
4369 1 4.38989 1.81 4.82888 -3.54
4370 1 4.38989 5.43 4.82888 -3.54
4371 1 4.38989 9.05 4.82888 -3.54
4372 1 4.38989 12.67 4.82888 -3.54
4373 1 4.38989 16.29 4.82888 -3.54
4374 1 4.38989 19.91 4.82888 -3.54
4411 1 4.38989 1.81 19.7545 -3.54
4412 1 4.38989 5.43 19.7545 -3.54
4413 1 4.38989 9.05 19.7545 -3.54
4414 1 4.38989 12.67 19.7545 -3.54
4415 1 4.38989 16.29 19.7545 -3.54
4416 1 4.38989 19.91 19.7545 -3.54
4453 1 2.63394 0 4.38989 -3.54051
4454 1 2.63394 3.62 4.38989 -3.54051
4455 1 2.63394 7.24 4.38989 -3.54051
4456 1 2.63394 10.86 4.38989 -3.54051
4457 1 2.63394 14.48 4.38989 -3.54051
4458 1 2.63394 18.1 4.38989 -3.54051
4495 1 2.63394 0 19.3155 -3.54051
4496 1 2.63394 3.62 19.3155 -3.54051
4497 1 2.63394 7.24 19.3155 -3.54051
4498 1 2.63394 10.86 19.3155 -3.54051
4499 1 2.63394 14.48 19.3155 -3.54051
4500 1 2.63394 18.1 19.3155 -3.54051
4537 1 6.58484 1.81 3.51192 -3.54
4538 1 6.58484 5.43 3.51192 -3.54
4539 1 6.58484 9.05 3.51192 -3.54
4540 1 6.58484 12.67 3.51192 -3.54
4541 1 6.58484 16.29 3.51192 -3.54
4542 1 6.58484 19.91 3.51192 -3.54
4579 1 6.58484 1.81 18.4376 -3.54
4580 1 6.58484 5.43 18.4376 -3.54
4581 1 6.58484 9.05 18.4376 -3.54
4582 1 6.58484 12.67 18.4376 -3.54
4583 1 6.58484 16.29 18.4376 -3.54
4584 1 6.58484 19.91 18.4376 -3.54
4621 1 4.82888 0 3.07293 -3.54
4622 1 4.82888 3.62 3.07293 -3.54
4623 1 4.82888 7.24 3.07293 -3.54
4624 1 4.82888 10.86 3.07293 -3.54
4625 1 4.82888 14.48 3.07293 -3.54
4626 1 4.82888 18.1 3.07293 -3.54
4663 1 4.82888 0 17.9986 -3.54
4664 1 4.82888 3.62 17.9986 -3.54
4665 1 4.82888 7.24 17.9986 -3.54
4666 1 4.82888 10.86 17.9986 -3.54
4667 1 4.82888 14.48 17.9986 -3.54
4668 1 4.82888 18.1 17.9986 -3.54
4705 1 8.77979 1.81 2.19495 -3.54
4706 1 8.77979 5.43 2.19495 -3.54
4707 1 8.77979 9.05 2.19495 -3.54
4708 1 8.77979 12.67 2.19495 -3.54
4709 1 8.77979 16.29 2.19495 -3.54
4710 1 8.77979 19.91 2.19495 -3.54
4747 1 8.77979 1.81 17.1206 -3.54
4748 1 8.77979 5.43 17.1206 -3.54
4749 1 8.77979 9.05 17.1206 -3.54
4750 1 8.77979 12.67 17.1206 -3.54
4751 1 8.77979 16.29 17.1206 -3.54
4752 1 8.77979 19.91 17.1206 -3.54
4789 1 7.02383 0 1.75596 -3.54
4790 1 7.02383 3.62 1.75596 -3.54
4791 1 7.02383 7.24 1.75596 -3.54
4792 1 7.02383 10.86 1.75596 -3.54
4793 1 7.02383 14.48 1.75596 -3.54
4794 1 7.02383 18.1 1.75596 -3.54
4831 1 7.02383 0 16.6816 -3.54
4832 1 7.02383 3.62 16.6816 -3.54
4833 1 7.02383 7.24 16.6816 -3.54
4834 1 7.02383 10.86 16.6816 -3.54
4835 1 7.02383 14.48 16.6816 -3.54
4836 1 7.02383 18.1 16.6816 -3.54
4873 1 10.9747 1.81 0.877979 -3.54
4874 1 10.9747 5.43 0.877979 -3.54
4875 1 10.9747 9.05 0.877979 -3.54
4876 1 10.9747 12.67 0.877979 -3.54
4877 1 10.9747 16.29 0.877979 -3.54
4878 1 10.9747 19.91 0.877979 -3.54
4915 1 10.9747 1.81 15.8036 -3.54
4916 1 10.9747 5.43 15.8036 -3.54
4917 1 10.9747 9.05 15.8036 -3.54
4918 1 10.9747 12.67 15.8036 -3.54
4919 1 10.9747 16.29 15.8036 -3.54
4920 1 10.9747 19.91 15.8036 -3.54
4957 1 9.21878 0 0.438989 -3.54
4958 1 9.21878 3.62 0.438989 -3.54
4959 1 9.21878 7.24 0.438989 -3.54
4960 1 9.21878 10.86 0.438989 -3.54
4961 1 9.21878 14.48 0.438989 -3.54
4962 1 9.21878 18.1 0.438989 -3.54
4999 1 9.21878 0 15.3646 -3.54
5000 1 9.21878 3.62 15.3646 -3.54
5001 1 9.21878 7.24 15.3646 -3.54
5002 1 9.21878 10.86 15.3646 -3.54
5003 1 9.21878 14.48 15.3646 -3.54
5004 1 9.21878 18.1 15.3646 -3.54
5041 1 0.877979 1.81 3.95091 -2.99963
5042 1 0.877979 5.43 3.95091 -2.99963
5043 1 0.877979 9.05 3.95091 -2.99963
5044 1 0.877979 12.67 3.95091 -2.99963
5045 1 0.877979 16.29 3.95091 -2.99963
5046 1 0.877979 19.91 3.95091 -2.99963
5047 1 15.8036 1.81 3.95091 -3.54
5048 1 15.8036 5.43 3.95091 -3.54
5049 1 15.8036 9.05 3.95091 -3.54
5050 1 15.8036 12.67 3.95091 -3.54
5051 1 15.8036 16.29 3.95091 -3.54
5052 1 15.8036 19.91 3.95091 -3.54
5083 1 0.877979 1.81 18.8765 -2.99963
5084 1 0.877979 5.43 18.8765 -2.99963
5085 1 0.877979 9.05 18.8765 -2.99963
5086 1 0.877979 12.67 18.8765 -2.99963
5087 1 0.877979 16.29 18.8765 -2.99963
5088 1 0.877979 19.91 18.8765 -2.99963
5089 1 15.8036 1.81 18.8765 -3.54
5090 1 15.8036 5.43 18.8765 -3.54
5091 1 15.8036 9.05 18.8765 -3.54
5092 1 15.8036 12.67 18.8765 -3.54
5093 1 15.8036 16.29 18.8765 -3.54
5094 1 15.8036 19.91 18.8765 -3.54
5125 1 3.07293 1.81 2.63394 -3.54051
5126 1 3.07293 5.43 2.63394 -3.54051
5127 1 3.07293 9.05 2.63394 -3.54051
5128 1 3.07293 12.67 2.63394 -3.54051
5129 1 3.07293 16.29 2.63394 -3.54051
5130 1 3.07293 19.91 2.63394 -3.54051
5167 1 3.07293 1.81 17.5596 -3.54051
5168 1 3.07293 5.43 17.5596 -3.54051
5169 1 3.07293 9.05 17.5596 -3.54051
5170 1 3.07293 12.67 17.5596 -3.54051
5171 1 3.07293 16.29 17.5596 -3.54051
5172 1 3.07293 19.91 17.5596 -3.54051
5209 1 1.31697 0 2.19495 -3.16886
5210 1 1.31697 3.62 2.19495 -3.16886
5211 1 1.31697 7.24 2.19495 -3.16886
5212 1 1.31697 10.86 2.19495 -3.16886
5213 1 1.31697 14.48 2.19495 -3.16886